 vasp.5.4.1 05Feb16 (build Aug 29 2016 09:33:34) complex                        
  
 executed on           IFC91_ompi date 2024.04.19  16:38:00
 running on   40 total cores
 distrk:  each k-point on   40 cores,    1 groups
 distr:  one band on NCORES_PER_BAND=  20 cores,    2 groups


--------------------------------------------------------------------------------------------------------


 INCAR:
 POTCAR:    PAW_PBE Ni 02Aug2007                  
 POTCAR:    PAW_PBE O 08Apr2002                   

 ----------------------------------------------------------------------------- 
|                                                                             |
|           W    W    AA    RRRRR   N    N  II  N    N   GGGG   !!!           |
|           W    W   A  A   R    R  NN   N  II  NN   N  G    G  !!!           |
|           W    W  A    A  R    R  N N  N  II  N N  N  G       !!!           |
|           W WW W  AAAAAA  RRRRR   N  N N  II  N  N N  G  GGG   !            |
|           WW  WW  A    A  R   R   N   NN  II  N   NN  G    G                |
|           W    W  A    A  R    R  N    N  II  N    N   GGGG   !!!           |
|                                                                             |
|      For optimal performance we recommend to set                            |
|        NCORE= 4 - approx SQRT( number of cores)                             |
|      NCORE specifies how many cores store one orbital (NPAR=cpu/NCORE).     |
|      This setting can  greatly improve the performance of VASP for DFT.     |
|      The default, NPAR=number of cores might be grossly inefficient         |
|      on modern multi-core architectures or massively parallel machines.     |
|      Do your own testing !!!!                                               |
|      Unfortunately you need to use the default for GW and RPA calculations. |
|      (for HF NCORE is supported but not extensively tested yet)             |
|                                                                             |
 ----------------------------------------------------------------------------- 


 ----------------------------------------------------------------------------- 
|                                                                             |
|  ADVICE TO THIS USER RUNNING 'VASP/VAMP'   (HEAR YOUR MASTER'S VOICE ...):  |
|                                                                             |
|      You have switched on vdW-DFT.                                          |
|      This routine was written and supplied by Jiri Klimes.                  |
|      We recommed that you carefully read and cite the following             |
|      publication                                                            |
|      J. Klimes, D.R. Bowler, A. Michelides                                  |
|        J. Phys.: Cond Matt. 22 022201 (2010)                                |
|      J. Klimes, D.R. Bowler, A. Michelides                                  |
|        Phys. Rev. B. 83, 195131 (2011)                                      |
|      and references therein.                                                |
|                                                                             |
 ----------------------------------------------------------------------------- 

 POTCAR:    PAW_PBE Ni 02Aug2007                  
   VRHFIN =Ni:                                                                  
   LEXCH  = PE                                                                  
   EATOM  =  1077.6739 eV,   79.2068 Ry                                         
                                                                                
   TITEL  = PAW_PBE Ni 02Aug2007                                                
   LULTRA =        F    use ultrasoft PP ?                                      
   IUNSCR =        1    unscreen: 0-lin 1-nonlin 2-no                           
   RPACOR =    2.000    partial core radius                                     
   POMASS =   58.690; ZVAL   =   10.000    mass and valenz                      
   RCORE  =    2.300    outmost cutoff radius                                   
   RWIGS  =    2.430; RWIGS  =    1.286    wigner-seitz radius (au A)           
   ENMAX  =  269.532; ENMIN  =  202.149 eV                                      
   RCLOC  =    1.201    cutoff for local pot                                    
   LCOR   =        T    correct aug charges                                     
   LPAW   =        T    paw PP                                                  
   EAUG   =  544.565                                                            
   DEXC   =    0.000                                                            
   RMAX   =    2.357    core radius for proj-oper                               
   RAUG   =    1.300    factor for augmentation sphere                          
   RDEP   =    2.390    radius for radial grids                                 
   RDEPT  =    1.838    core radius for aug-charge                              
                                                                                
   Atomic configuration                                                         
    9 entries                                                                   
     n  l   j            E        occ.                                          
     1  0  0.50     -8206.4253   2.0000                                         
     2  0  0.50      -976.1748   2.0000                                         
     2  1  1.50      -839.0571   6.0000                                         
     3  0  0.50      -105.9991   2.0000                                         
     3  1  1.50       -66.4603   6.0000                                         
     3  2  2.50        -4.6458   9.0000                                         
     4  0  0.50        -4.4926   1.0000                                         
     4  1  1.50        -4.0817   0.0000                                         
     4  3  2.50        -1.3606   0.0000                                         
   Description                                                                  
     l       E           TYP  RCUT    TYP  RCUT                                 
     2     -4.6457903     23  2.300                                             
     2     -6.0063729     23  2.300                                             
     0     -4.4925590     23  2.300                                             
     0      5.0102601     23  2.300                                             
     1     -2.7211652     23  2.300                                             
     1     16.5183231     23  2.300                                             
  local pseudopotential read in
  partial core-charges read in
  partial kinetic energy density read in
  atomic valenz-charges read in
  non local Contribution for L=           2  read in
    real space projection operators read in
  non local Contribution for L=           2  read in
    real space projection operators read in
  non local Contribution for L=           0  read in
    real space projection operators read in
  non local Contribution for L=           0  read in
    real space projection operators read in
  non local Contribution for L=           1  read in
    real space projection operators read in
  non local Contribution for L=           1  read in
    real space projection operators read in
    PAW grid and wavefunctions read in
 
   number of l-projection  operators is LMAX  =           6
   number of lm-projection operators is LMMAX =          18
 
 POTCAR:    PAW_PBE O 08Apr2002                   
   VRHFIN =O: s2p4                                                              
   LEXCH  = PE                                                                  
   EATOM  =   432.3788 eV,   31.7789 Ry                                         
                                                                                
   TITEL  = PAW_PBE O 08Apr2002                                                 
   LULTRA =        F    use ultrasoft PP ?                                      
   IUNSCR =        1    unscreen: 0-lin 1-nonlin 2-no                           
   RPACOR =    1.200    partial core radius                                     
   POMASS =   16.000; ZVAL   =    6.000    mass and valenz                      
   RCORE  =    1.520    outmost cutoff radius                                   
   RWIGS  =    1.550; RWIGS  =    0.820    wigner-seitz radius (au A)           
   ENMAX  =  400.000; ENMIN  =  300.000 eV                                      
   ICORE  =        2    local potential                                         
   LCOR   =        T    correct aug charges                                     
   LPAW   =        T    paw PP                                                  
   EAUG   =  605.392                                                            
   DEXC   =    0.000                                                            
   RMAX   =    1.553    core radius for proj-oper                               
   RAUG   =    1.300    factor for augmentation sphere                          
   RDEP   =    1.550    radius for radial grids                                 
   RDEPT  =    1.329    core radius for aug-charge                              
                                                                                
   Atomic configuration                                                         
    4 entries                                                                   
     n  l   j            E        occ.                                          
     1  0  0.50      -514.6923   2.0000                                         
     2  0  0.50       -23.9615   2.0000                                         
     2  1  0.50        -9.0305   4.0000                                         
     3  2  1.50        -9.5241   0.0000                                         
   Description                                                                  
     l       E           TYP  RCUT    TYP  RCUT                                 
     0    -23.9615318     23  1.200                                             
     0     -9.5240782     23  1.200                                             
     1     -9.0304911     23  1.520                                             
     1      8.1634956     23  1.520                                             
     2     -9.5240782      7  1.500                                             
  local pseudopotential read in
  partial core-charges read in
  partial kinetic energy density read in
  kinetic energy density of atom read in
  atomic valenz-charges read in
  non local Contribution for L=           0  read in
    real space projection operators read in
  non local Contribution for L=           0  read in
    real space projection operators read in
  non local Contribution for L=           1  read in
    real space projection operators read in
  non local Contribution for L=           1  read in
    real space projection operators read in
    PAW grid and wavefunctions read in
 
   number of l-projection  operators is LMAX  =           4
   number of lm-projection operators is LMMAX =           8
 

 ----------------------------------------------------------------------------- 
|                                                                             |
|  ADVICE TO THIS USER RUNNING 'VASP/VAMP'   (HEAR YOUR MASTER'S VOICE ...):  |
|                                                                             |
|      You have a (more or less) 'large supercell' and for larger cells       |
|      it might be more efficient to use real space projection opertators     |
|      So try LREAL= Auto  in the INCAR   file.                               |
|      Mind: At the moment your POTCAR file does not contain real space       |
|       projectors, and has to be modified,  BUT if you                       |
|      want to do an extremely  accurate calculation you might also keep the  |
|      reciprocal projection scheme          (i.e. LREAL=.FALSE.)             |
|                                                                             |
 ----------------------------------------------------------------------------- 


 ----------------------------------------------------------------------------- 
|                                                                             |
|  ADVICE TO THIS USER RUNNING 'VASP/VAMP'   (HEAR YOUR MASTER'S VOICE ...):  |
|                                                                             |
|      You enforced a specific xc-type in the INCAR file,                     |
|      a different type was found on the POTCAR file                          |
|          I HOPE YOU KNOW, WHAT YOU ARE  DOING                               |
|                                                                             |
 ----------------------------------------------------------------------------- 

  PAW_PBE Ni 02Aug2007                  :
 energy of atom  1       EATOM=-1077.6739
 kinetic energy error for atom=    0.0030 (will be added to EATOM!!)
  PAW_PBE O 08Apr2002                   :
 energy of atom  2       EATOM= -432.3788
 kinetic energy error for atom=    0.0224 (will be added to EATOM!!)
 
 
 POSCAR: Ni  O                                   
  positions in cartesian coordinates
  No initial velocities read in
 exchange correlation table for  LEXCH =       17
   RHO(1)=    0.500       N(1)  =     2000
   RHO(2)=  100.500       N(2)  =     4000
 


--------------------------------------------------------------------------------------------------------


 ion  position               nearest neighbor table
   1  0.000  0.000  0.000-  33 2.12  35 2.12  36 2.12  39 2.12  44 2.12  49 2.12  12 3.00  20 3.00
                             3 3.00  23 3.00   6 3.00   7 3.00  10 3.00   2 3.00  14 3.00  19 3.00
   2  0.000  0.250  0.250-  34 2.12  35 2.12  36 2.12  40 2.12  43 2.12  50 2.12   3 3.00  27 3.00
                            24 3.00   1 3.00   4 3.00   5 3.00   8 3.00   9 3.00  13 3.00  20 3.00
   3  0.250  0.000  0.250-  33 2.12  34 2.12  35 2.12  37 2.12  42 2.12  51 2.12   2 3.00  26 3.00
                            21 3.00   1 3.00   4 3.00   5 3.00   8 3.00  12 3.00  16 3.00  17 3.00
   4  0.250  0.250  0.000-  33 2.12  34 2.12  36 2.12  38 2.12  41 2.12  52 2.12   9 3.00  17 3.00
                            18 3.00  22 3.00   6 3.00   7 3.00   2 3.00  11 3.00  15 3.00   3 3.00
   5  0.000  0.000  0.500-  35 2.12  37 2.12  39 2.12  40 2.12  48 2.12  53 2.12  16 3.00  24 3.00
                            23 3.00   3 3.00   6 3.00   7 3.00  10 3.00  14 3.00   2 3.00  19 3.00
   6  0.000  0.250  0.750-  36 2.12  38 2.12  39 2.12  40 2.12  47 2.12  54 2.12   7 3.00  31 3.00
                            24 3.00   4 3.00   5 3.00   1 3.00   8 3.00   9 3.00  13 3.00  20 3.00
   7  0.250  0.000  0.750-  33 2.12  37 2.12  38 2.12  39 2.12  46 2.12  55 2.12   6 3.00  30 3.00
                            21 3.00   4 3.00   5 3.00   1 3.00   8 3.00  12 3.00  16 3.00  17 3.00
   8  0.250  0.250  0.500-  34 2.12  37 2.12  38 2.12  40 2.12  45 2.12  56 2.12  13 3.00  21 3.00
                             3 3.00  22 3.00   6 3.00   7 3.00  11 3.00   2 3.00  15 3.00  18 3.00
   9  0.000  0.500  0.000-  36 2.12  41 2.12  43 2.12  44 2.12  47 2.12  57 2.12   4 3.00  28 3.00
                             2 3.00  31 3.00   6 3.00  10 3.00  11 3.00  14 3.00  15 3.00  27 3.00
  10  0.000  0.750  0.250-  35 2.12  42 2.12  43 2.12  44 2.12  48 2.12  58 2.12  11 3.00  19 3.00
                            28 3.00  32 3.00   9 3.00   1 3.00  12 3.00  13 3.00  16 3.00   5 3.00
  11  0.250  0.500  0.250-  34 2.12  41 2.12  42 2.12  43 2.12  45 2.12  59 2.12  10 3.00  18 3.00
                            25 3.00  29 3.00   9 3.00   4 3.00  12 3.00  13 3.00  16 3.00   8 3.00
  12  0.250  0.750  0.000-  33 2.12  41 2.12  42 2.12  44 2.12  46 2.12  60 2.12   1 3.00  25 3.00
                            26 3.00  30 3.00   7 3.00  10 3.00  11 3.00  14 3.00  15 3.00   3 3.00
  13  0.000  0.500  0.500-  40 2.12  43 2.12  45 2.12  47 2.12  48 2.12  61 2.12   8 3.00  32 3.00
                            31 3.00   6 3.00   2 3.00  10 3.00  11 3.00  14 3.00  15 3.00  27 3.00
  14  0.000  0.750  0.750-  39 2.12  44 2.12  46 2.12  47 2.12  48 2.12  62 2.12  15 3.00  23 3.00
                            28 3.00  32 3.00   9 3.00  12 3.00  13 3.00   1 3.00  16 3.00   5 3.00
  15  0.250  0.500  0.750-  38 2.12  41 2.12  45 2.12  46 2.12  47 2.12  63 2.12  14 3.00  22 3.00
                            25 3.00  29 3.00   9 3.00  12 3.00  13 3.00   4 3.00  16 3.00   8 3.00
  16  0.250  0.750  0.500-  37 2.12  42 2.12  45 2.12  46 2.12  48 2.12  64 2.12   5 3.00  29 3.00
                             3 3.00  30 3.00   7 3.00  10 3.00  11 3.00  14 3.00  15 3.00  26 3.00
  17  0.500  0.000  0.000-  33 2.12  49 2.12  51 2.12  52 2.12  55 2.12  60 2.12   4 3.00  28 3.00
                             3 3.00  30 3.00   7 3.00  18 3.00  19 3.00  22 3.00  23 3.00  26 3.00
  18  0.500  0.250  0.250-  34 2.12  50 2.12  51 2.12  52 2.12  56 2.12  59 2.12  11 3.00  19 3.00
                            25 3.00  29 3.00   4 3.00  17 3.00   8 3.00  20 3.00  21 3.00  24 3.00
  19  0.750  0.000  0.250-  35 2.12  49 2.12  50 2.12  51 2.12  53 2.12  58 2.12  10 3.00  18 3.00
                            28 3.00  32 3.00   1 3.00  17 3.00   5 3.00  20 3.00  21 3.00  24 3.00
  20  0.750  0.250  0.000-  36 2.12  49 2.12  50 2.12  52 2.12  54 2.12  57 2.12   1 3.00  25 3.00
                            27 3.00  31 3.00   6 3.00  18 3.00  19 3.00  22 3.00  23 3.00   2 3.00
  21  0.500  0.000  0.500-  37 2.12  51 2.12  53 2.12  55 2.12  56 2.12  64 2.12   8 3.00  32 3.00
                            30 3.00   7 3.00   3 3.00  18 3.00  19 3.00  22 3.00  23 3.00  26 3.00
  22  0.500  0.250  0.750-  38 2.12  52 2.12  54 2.12  55 2.12  56 2.12  63 2.12  15 3.00  23 3.00
                            25 3.00  29 3.00   4 3.00  17 3.00  20 3.00  21 3.00   8 3.00  24 3.00
  23  0.750  0.000  0.750-  39 2.12  49 2.12  53 2.12  54 2.12  55 2.12  62 2.12  14 3.00  22 3.00
                            28 3.00  32 3.00   1 3.00  17 3.00  20 3.00  21 3.00   5 3.00  24 3.00
  24  0.750  0.250  0.500-  40 2.12  50 2.12  53 2.12  54 2.12  56 2.12  61 2.12   5 3.00  29 3.00
                             2 3.00  31 3.00   6 3.00  18 3.00  19 3.00  22 3.00  23 3.00  27 3.00
  25  0.500  0.500  0.000-  41 2.12  52 2.12  57 2.12  59 2.12  60 2.12  63 2.12  12 3.00  20 3.00
                            30 3.00  31 3.00  15 3.00  18 3.00  11 3.00  22 3.00  26 3.00  27 3.00
  26  0.500  0.750  0.250-  42 2.12  51 2.12  58 2.12  59 2.12  60 2.12  64 2.12   3 3.00  27 3.00
                            29 3.00  32 3.00  16 3.00  17 3.00  21 3.00  25 3.00  12 3.00  28 3.00
  27  0.750  0.500  0.250-  43 2.12  50 2.12  57 2.12  58 2.12  59 2.12  61 2.12   2 3.00  26 3.00
                            29 3.00  32 3.00  13 3.00  20 3.00  24 3.00  25 3.00   9 3.00  28 3.00
  28  0.750  0.750  0.000-  44 2.12  49 2.12  57 2.12  58 2.12  60 2.12  62 2.12   9 3.00  17 3.00
                            30 3.00  31 3.00  14 3.00  10 3.00  19 3.00  23 3.00  26 3.00  27 3.00
  29  0.500  0.500  0.500-  45 2.12  56 2.12  59 2.12  61 2.12  63 2.12  64 2.12  16 3.00  24 3.00
                            30 3.00  31 3.00  11 3.00  18 3.00  22 3.00  15 3.00  26 3.00  27 3.00
  30  0.500  0.750  0.750-  46 2.12  55 2.12  60 2.12  62 2.12  63 2.12  64 2.12   7 3.00  31 3.00
                            12 3.00  32 3.00  16 3.00  17 3.00  21 3.00  25 3.00  28 3.00  29 3.00
  31  0.750  0.500  0.750-  47 2.12  54 2.12  57 2.12  61 2.12  62 2.12  63 2.12   6 3.00  30 3.00
                             9 3.00  32 3.00  13 3.00  20 3.00  24 3.00  25 3.00  28 3.00  29 3.00
  32  0.750  0.750  0.500-  48 2.12  53 2.12  58 2.12  61 2.12  62 2.12  64 2.12  13 3.00  21 3.00
                            30 3.00  31 3.00  14 3.00  19 3.00  10 3.00  23 3.00  26 3.00  27 3.00
  33  0.250  0.000  0.000-   1 2.12   3 2.12   4 2.12   7 2.12  12 2.12  17 2.12
  34  0.250  0.250  0.250-   2 2.12   3 2.12   4 2.12   8 2.12  11 2.12  18 2.12
  35  0.000  0.000  0.250-   1 2.12   2 2.12   3 2.12   5 2.12  10 2.12  19 2.12
  36  0.000  0.250  0.000-   1 2.12   2 2.12   4 2.12   6 2.12   9 2.12  20 2.12
  37  0.250  0.000  0.500-   3 2.12   5 2.12   7 2.12   8 2.12  16 2.12  21 2.12
  38  0.250  0.250  0.750-   4 2.12   6 2.12   7 2.12   8 2.12  15 2.12  22 2.12
  39  0.000  0.000  0.750-   1 2.12   5 2.12   6 2.12   7 2.12  14 2.12  23 2.12
  40  0.000  0.250  0.500-   2 2.12   5 2.12   6 2.12   8 2.12  13 2.12  24 2.12
  41  0.250  0.500  0.000-   4 2.12   9 2.12  11 2.12  12 2.12  15 2.12  25 2.12
  42  0.250  0.750  0.250-   3 2.12  10 2.12  11 2.12  12 2.12  16 2.12  26 2.12
  43  0.000  0.500  0.250-   2 2.12   9 2.12  10 2.12  11 2.12  13 2.12  27 2.12
  44  0.000  0.750  0.000-   1 2.12   9 2.12  10 2.12  12 2.12  14 2.12  28 2.12
  45  0.250  0.500  0.500-   8 2.12  11 2.12  13 2.12  15 2.12  16 2.12  29 2.12
  46  0.250  0.750  0.750-   7 2.12  12 2.12  14 2.12  15 2.12  16 2.12  30 2.12
  47  0.000  0.500  0.750-   6 2.12   9 2.12  13 2.12  14 2.12  15 2.12  31 2.12
  48  0.000  0.750  0.500-   5 2.12  10 2.12  13 2.12  14 2.12  16 2.12  32 2.12
  49  0.750  0.000  0.000-   1 2.12  17 2.12  19 2.12  20 2.12  23 2.12  28 2.12
  50  0.750  0.250  0.250-   2 2.12  18 2.12  19 2.12  20 2.12  24 2.12  27 2.12
  51  0.500  0.000  0.250-   3 2.12  17 2.12  18 2.12  19 2.12  21 2.12  26 2.12
  52  0.500  0.250  0.000-   4 2.12  17 2.12  18 2.12  20 2.12  22 2.12  25 2.12
  53  0.750  0.000  0.500-   5 2.12  19 2.12  21 2.12  23 2.12  24 2.12  32 2.12
  54  0.750  0.250  0.750-   6 2.12  20 2.12  22 2.12  23 2.12  24 2.12  31 2.12
  55  0.500  0.000  0.750-   7 2.12  17 2.12  21 2.12  22 2.12  23 2.12  30 2.12
  56  0.500  0.250  0.500-   8 2.12  18 2.12  21 2.12  22 2.12  24 2.12  29 2.12
  57  0.750  0.500  0.000-   9 2.12  20 2.12  25 2.12  27 2.12  28 2.12  31 2.12
  58  0.750  0.750  0.250-  10 2.12  19 2.12  26 2.12  27 2.12  28 2.12  32 2.12
  59  0.500  0.500  0.250-  11 2.12  18 2.12  25 2.12  26 2.12  27 2.12  29 2.12
  60  0.500  0.750  0.000-  12 2.12  17 2.12  25 2.12  26 2.12  28 2.12  30 2.12
  61  0.750  0.500  0.500-  13 2.12  24 2.12  27 2.12  29 2.12  31 2.12  32 2.12
  62  0.750  0.750  0.750-  14 2.12  23 2.12  28 2.12  30 2.12  31 2.12  32 2.12
  63  0.500  0.500  0.750-  15 2.12  22 2.12  25 2.12  29 2.12  30 2.12  31 2.12
  64  0.500  0.750  0.500-  16 2.12  21 2.12  26 2.12  29 2.12  30 2.12  32 2.12
 

IMPORTANT INFORMATION: All symmetrisations will be switched off!
NOSYMM: (Re-)initialisation of all symmetry stuff for point group C_1.

 
 
 KPOINTS: KPOINTS created by Atomic Simulation Env

Automatic generation of k-mesh.
Space group operators:
 irot       det(A)        alpha          n_x          n_y          n_z        tau_x        tau_y        tau_z
    1     1.000000     0.000000     1.000000     0.000000     0.000000     0.000000     0.000000     0.000000
 
 Subroutine IBZKPT returns following result:
 ===========================================
 
 Found     14 irreducible k-points:
 
 Following reciprocal coordinates:
            Coordinates               Weight
  0.000000  0.000000  0.000000      1.000000
  0.333333 -0.000000  0.000000      2.000000
  0.000000  0.333333  0.000000      2.000000
  0.333333  0.333333  0.000000      2.000000
 -0.333333  0.333333  0.000000      2.000000
 -0.000000  0.000000  0.333333      2.000000
  0.333333  0.000000  0.333333      2.000000
 -0.333333  0.000000  0.333333      2.000000
 -0.000000  0.333333  0.333333      2.000000
  0.333333  0.333333  0.333333      2.000000
 -0.333333  0.333333  0.333333      2.000000
 -0.000000 -0.333333  0.333333      2.000000
  0.333333 -0.333333  0.333333      2.000000
 -0.333333 -0.333333  0.333333      2.000000
 
 Following cartesian coordinates:
            Coordinates               Weight
  0.000000  0.000000  0.000000      1.000000
  0.039333 -0.000000  0.000000      2.000000
  0.000000  0.039333  0.000000      2.000000
  0.039333  0.039333  0.000000      2.000000
 -0.039333  0.039333  0.000000      2.000000
 -0.000000 -0.000000  0.039333      2.000000
  0.039333 -0.000000  0.039333      2.000000
 -0.039333  0.000000  0.039333      2.000000
 -0.000000  0.039333  0.039333      2.000000
  0.039333  0.039333  0.039333      2.000000
 -0.039333  0.039333  0.039333      2.000000
 -0.000000 -0.039333  0.039333      2.000000
  0.039333 -0.039333  0.039333      2.000000
 -0.039333 -0.039333  0.039333      2.000000
 
 TETIRR: Found     78 inequivalent tetrahedra from      162


--------------------------------------------------------------------------------------------------------




 Dimension of arrays:
   k-points           NKPTS =     14   k-points in BZ     NKDIM =     14   number of bands    NBANDS=    300
   number of dos      NEDOS =    301   number of ions     NIONS =     64
   non local maximal  LDIM  =      6   non local SUM 2l+1 LMDIM =     18
   total plane-waves  NPLWV = 110592
   max r-space proj   IRMAX =      1   max aug-charges    IRDMAX=   6088
   dimension x,y,z NGX =    48 NGY =   48 NGZ =   48
   dimension x,y,z NGXF=    96 NGYF=   96 NGZF=   96
   support grid    NGXF=    96 NGYF=   96 NGZF=   96
   ions per type =              32  32
 NGX,Y,Z   is equivalent  to a cutoff of   9.42,  9.42,  9.42 a.u.
 NGXF,Y,Z  is equivalent  to a cutoff of  18.83, 18.83, 18.83 a.u.


 I would recommend the setting:
   dimension x,y,z NGX =    46 NGY =   46 NGZ =   46
 SYSTEM =  unknown system                          
 POSCAR =  Ni  O                                   

 Startparameter for this run:
   NWRITE =      2    write-flag & timer
   PREC   = normal    normal or accurate (medium, high low for compatibility)
   ISTART =      0    job   : 0-new  1-cont  2-samecut
   ICHARG =      2    charge: 1-file 2-atom 10-const
   ISPIN  =      2    spin polarized calculation?
   LNONCOLLINEAR =      F non collinear calculations
   LSORBIT =      F    spin-orbit coupling
   INIWAV =      1    electr: 0-lowe 1-rand  2-diag
   LASPH  =      F    aspherical Exc in radial PAW
   METAGGA=      F    non-selfconsistent MetaGGA calc.

 Electronic Relaxation 1
   ENCUT  =  500.0 eV  36.75 Ry    6.06 a.u.  15.45 15.45 15.45*2*pi/ulx,y,z
   ENINI  =  500.0     initial cutoff
   ENAUG  =  605.4 eV  augmentation charge cutoff
   NELM   =    250;   NELMIN=  2; NELMDL=  0     # of ELM steps 
   EDIFF  = 0.1E-04   stopping-criterion for ELM
   LREAL  =      F    real-space projection
   NLSPLINE    = F    spline interpolate recip. space projectors
   LCOMPAT=      F    compatible to vasp.4.4
   GGA_COMPAT  = T    GGA compatible to vasp.4.4-vasp.4.6
   LMAXPAW     = -100 max onsite density
   LMAXMIX     =    2 max onsite mixed and CHGCAR
   VOSKOWN=      0    Vosko Wilk Nusair interpolation
   ROPT   =    0.00000   0.00000
 Ionic relaxation
   EDIFFG = -.1E-01   stopping-criterion for IOM
   NSW    =      1    number of steps for IOM
   NBLOCK =      1;   KBLOCK =      1    inner block; outer block 
   IBRION =     -1    ionic relax: 0-MD 1-quasi-New 2-CG
   NFREE  =      0    steps in history (QN), initial steepest desc. (CG)
   ISIF   =      0    stress and relaxation
   IWAVPR =     10    prediction:  0-non 1-charg 2-wave 3-comb
   ISYM   =      0    0-nonsym 1-usesym 2-fastsym
   LCORR  =      T    Harris-Foulkes like correction to forces

   POTIM  = 0.5000    time-step for ionic-motion
   TEIN   =    0.0    initial temperature
   TEBEG  =    0.0;   TEEND  =   0.0 temperature during run
   SMASS  =  -3.00    Nose mass-parameter (am)
   estimated Nose-frequenzy (Omega)   =  0.10E-29 period in steps =****** mass=  -0.164E-26a.u.
   SCALEE = 1.0000    scale energy and forces
   NPACO  =    256;   APACO  = 16.0  distance and # of slots for P.C.
   PSTRESS=    0.0 pullay stress

  Mass of Ions in am
   POMASS =  58.69 16.00
  Ionic Valenz
   ZVAL   =  10.00  6.00
  Atomic Wigner-Seitz radii
   RWIGS  =  -1.00 -1.00
  virtual crystal weights 
   VCA    =   1.00  1.00
   NELECT =     512.0000    total number of electrons
   NUPDOWN=      -1.0000    fix difference up-down

 DOS related values:
   EMIN   =  10.00;   EMAX   =-10.00  energy-range for DOS
   EFERMI =   0.00
   ISMEAR =    -5;   SIGMA  =   0.10  broadening in eV -4-tet -1-fermi 0-gaus

 Electronic relaxation 2 (details)
   IALGO  =     38    algorithm
   LDIAG  =      T    sub-space diagonalisation (order eigenvalues)
   LSUBROT=      F    optimize rotation matrix (better conditioning)
   TURBO    =      0    0=normal 1=particle mesh
   IRESTART =      0    0=no restart 2=restart with 2 vectors
   NREBOOT  =      0    no. of reboots
   NMIN     =      0    reboot dimension
   EREF     =   0.00    reference energy to select bands
   IMIX   =      4    mixing-type and parameters
     AMIX     =   0.40;   BMIX     =  1.00
     AMIX_MAG =   1.60;   BMIX_MAG =  1.00
     AMIN     =   0.10
     WC   =   100.;   INIMIX=   1;  MIXPRE=   1;  MAXMIX= -45

 Intra band minimization:
   WEIMIN = 0.0000     energy-eigenvalue tresh-hold
   EBREAK =  0.83E-08  absolut break condition
   DEPER  =   0.30     relativ break condition  

   TIME   =   0.40     timestep for ELM

  volume/ion in A,a.u.               =       9.51        64.18
  Fermi-wavevector in a.u.,A,eV,Ry     =   1.545395  2.920374 32.494068  2.388247
  Thomas-Fermi vector in A             =   2.650780
 
 Write flags
   LWAVE  =      T    write WAVECAR
   LCHARG =      T    write CHGCAR
   LVTOT  =      F    write LOCPOT, total local potential
   LVHAR  =      F    write LOCPOT, Hartree potential only
   LELF   =      F    write electronic localiz. function (ELF)
   LORBIT =     11    0 simple, 1 ext, 2 COOP (PROOUT)


 Dipole corrections
   LMONO  =      F    monopole corrections only (constant potential shift)
   LDIPOL =      F    correct potential (dipole corrections)
   IDIPOL =      0    1-x, 2-y, 3-z, 4-all directions 
   EPSILON=  1.0000000 bulk dielectric constant

 Exchange correlation treatment:
   GGA     =    BF    GGA type
   LEXCH   =    17    internal setting for exchange type
   VOSKOWN=      0    Vosko Wilk Nusair interpolation
   LHFCALC =     F    Hartree Fock is set to
   LHFONE  =     F    Hartree Fock one center treatment
   AEXX    =    0.0000 exact exchange contribution

 vdW DFT:
   LUSE_VDW   =     T    switch on vdW DFT
   Zab_VDW    =******    correlation parameter
   PARAM1     =0.1234
   PARAM2     =1.0000
   PARAM3     =0.0000

 Linear response parameters
   LEPSILON=     F    determine dielectric tensor
   LRPA    =     F    only Hartree local field effects (RPA)
   LNABLA  =     F    use nabla operator in PAW spheres
   LVEL    =     F    velocity operator in full k-point grid
   LINTERFAST=   F  fast interpolation
   KINTER  =     0    interpolate to denser k-point grid
   CSHIFT  =0.1000    complex shift for real part using Kramers Kronig
   OMEGAMAX=  -1.0    maximum frequency
   DEG_THRESHOLD= 0.2000000E-02 threshold for treating states as degnerate
   RTIME   =    0.100 relaxation time in fs

 Orbital magnetization related:
   ORBITALMAG=     F  switch on orbital magnetization
   LCHIMAG   =     F  perturbation theory with respect to B field
   DQ        =  0.001000  dq finite difference perturbation B field



--------------------------------------------------------------------------------------------------------


 Static calculation
 charge density and potential will be updated during run
 spin polarized calculation
 Variant of blocked Davidson
 Davidson routine will perform the subspace rotation
 perform sub-space diagonalisation
    after iterative eigenvector-optimisation
 modified Broyden-mixing scheme, WC =      100.0
 initial mixing is a Kerker type mixing with AMIX =  0.4000 and BMIX =      1.0000
 Hartree-type preconditioning will be used
 using additional bands           44
 reciprocal scheme for non local part
 use partial core corrections
 calculate Harris-corrections to forces 
   (improved forces if not selfconsistent)
 use gradient corrections 
 use of overlap-Matrix (Vanderbilt PP)
 Fermi weights with tetrahedron method with Bloechl corrections


--------------------------------------------------------------------------------------------------------


  energy-cutoff  :      500.00
  volume of cell :      608.66
      direct lattice vectors                 reciprocal lattice vectors
     8.474717519  0.000000000  0.000000000     0.117998033 -0.000000000  0.000000000
     0.000000000  8.474717519  0.000000000     0.000000000  0.117998033  0.000000000
     0.000000000  0.000000000  8.474717519    -0.000000000 -0.000000000  0.117998033

  length of vectors
     8.474717519  8.474717519  8.474717519     0.117998033  0.117998033  0.117998033


 
 k-points in units of 2pi/SCALE and weight: KPOINTS created by Atomic Simulation Env
   0.00000000  0.00000000  0.00000000       0.037
   0.03933268 -0.00000000  0.00000000       0.074
   0.00000000  0.03933268  0.00000000       0.074
   0.03933268  0.03933268  0.00000000       0.074
  -0.03933268  0.03933268  0.00000000       0.074
  -0.00000000 -0.00000000  0.03933268       0.074
   0.03933268 -0.00000000  0.03933268       0.074
  -0.03933268  0.00000000  0.03933268       0.074
  -0.00000000  0.03933268  0.03933268       0.074
   0.03933268  0.03933268  0.03933268       0.074
  -0.03933268  0.03933268  0.03933268       0.074
  -0.00000000 -0.03933268  0.03933268       0.074
   0.03933268 -0.03933268  0.03933268       0.074
  -0.03933268 -0.03933268  0.03933268       0.074
 
 k-points in reciprocal lattice and weights: KPOINTS created by Atomic Simulation Env
   0.00000000  0.00000000  0.00000000       0.037
   0.33333333 -0.00000000  0.00000000       0.074
   0.00000000  0.33333333  0.00000000       0.074
   0.33333333  0.33333333  0.00000000       0.074
  -0.33333333  0.33333333  0.00000000       0.074
  -0.00000000  0.00000000  0.33333333       0.074
   0.33333333  0.00000000  0.33333333       0.074
  -0.33333333  0.00000000  0.33333333       0.074
  -0.00000000  0.33333333  0.33333333       0.074
   0.33333333  0.33333333  0.33333333       0.074
  -0.33333333  0.33333333  0.33333333       0.074
  -0.00000000 -0.33333333  0.33333333       0.074
   0.33333333 -0.33333333  0.33333333       0.074
  -0.33333333 -0.33333333  0.33333333       0.074
 
 position of ions in fractional coordinates (direct lattice) 
   0.00000000  0.00000000  0.00000000
   0.00000000  0.25000000  0.25000000
   0.25000000  0.00000000  0.25000000
   0.25000000  0.25000000  0.00000000
   0.00000000  0.00000000  0.50000000
   0.00000000  0.25000000  0.75000000
   0.25000000  0.00000000  0.75000000
   0.25000000  0.25000000  0.50000000
   0.00000000  0.50000000  0.00000000
   0.00000000  0.75000000  0.25000000
   0.25000000  0.50000000  0.25000000
   0.25000000  0.75000000  0.00000000
   0.00000000  0.50000000  0.50000000
   0.00000000  0.75000000  0.75000000
   0.25000000  0.50000000  0.75000000
   0.25000000  0.75000000  0.50000000
   0.50000000  0.00000000  0.00000000
   0.50000000  0.25000000  0.25000000
   0.75000000  0.00000000  0.25000000
   0.75000000  0.25000000  0.00000000
   0.50000000  0.00000000  0.50000000
   0.50000000  0.25000000  0.75000000
   0.75000000  0.00000000  0.75000000
   0.75000000  0.25000000  0.50000000
   0.50000000  0.50000000  0.00000000
   0.50000000  0.75000000  0.25000000
   0.75000000  0.50000000  0.25000000
   0.75000000  0.75000000  0.00000000
   0.50000000  0.50000000  0.50000000
   0.50000000  0.75000000  0.75000000
   0.75000000  0.50000000  0.75000000
   0.75000000  0.75000000  0.50000000
   0.25000000  0.00000000  0.00000000
   0.25000000  0.25000000  0.25000000
   0.00000000  0.00000000  0.25000000
   0.00000000  0.25000000  0.00000000
   0.25000000  0.00000000  0.50000000
   0.25000000  0.25000000  0.75000000
   0.00000000  0.00000000  0.75000000
   0.00000000  0.25000000  0.50000000
   0.25000000  0.50000000  0.00000000
   0.25000000  0.75000000  0.25000000
   0.00000000  0.50000000  0.25000000
   0.00000000  0.75000000  0.00000000
   0.25000000  0.50000000  0.50000000
   0.25000000  0.75000000  0.75000000
   0.00000000  0.50000000  0.75000000
   0.00000000  0.75000000  0.50000000
   0.75000000  0.00000000  0.00000000
   0.75000000  0.25000000  0.25000000
   0.50000000  0.00000000  0.25000000
   0.50000000  0.25000000  0.00000000
   0.75000000  0.00000000  0.50000000
   0.75000000  0.25000000  0.75000000
   0.50000000  0.00000000  0.75000000
   0.50000000  0.25000000  0.50000000
   0.75000000  0.50000000  0.00000000
   0.75000000  0.75000000  0.25000000
   0.50000000  0.50000000  0.25000000
   0.50000000  0.75000000  0.00000000
   0.75000000  0.50000000  0.50000000
   0.75000000  0.75000000  0.75000000
   0.50000000  0.50000000  0.75000000
   0.50000000  0.75000000  0.50000000
 
 position of ions in cartesian coordinates  (Angst):
   0.00000000  0.00000000  0.00000000
   0.00000000  2.11867938  2.11867938
   2.11867938  0.00000000  2.11867938
   2.11867938  2.11867938  0.00000000
   0.00000000  0.00000000  4.23735876
   0.00000000  2.11867938  6.35603814
   2.11867938  0.00000000  6.35603814
   2.11867938  2.11867938  4.23735876
   0.00000000  4.23735876  0.00000000
   0.00000000  6.35603814  2.11867938
   2.11867938  4.23735876  2.11867938
   2.11867938  6.35603814  0.00000000
   0.00000000  4.23735876  4.23735876
   0.00000000  6.35603814  6.35603814
   2.11867938  4.23735876  6.35603814
   2.11867938  6.35603814  4.23735876
   4.23735876  0.00000000  0.00000000
   4.23735876  2.11867938  2.11867938
   6.35603814  0.00000000  2.11867938
   6.35603814  2.11867938  0.00000000
   4.23735876  0.00000000  4.23735876
   4.23735876  2.11867938  6.35603814
   6.35603814  0.00000000  6.35603814
   6.35603814  2.11867938  4.23735876
   4.23735876  4.23735876  0.00000000
   4.23735876  6.35603814  2.11867938
   6.35603814  4.23735876  2.11867938
   6.35603814  6.35603814  0.00000000
   4.23735876  4.23735876  4.23735876
   4.23735876  6.35603814  6.35603814
   6.35603814  4.23735876  6.35603814
   6.35603814  6.35603814  4.23735876
   2.11867938  0.00000000  0.00000000
   2.11867938  2.11867938  2.11867938
   0.00000000  0.00000000  2.11867938
   0.00000000  2.11867938  0.00000000
   2.11867938  0.00000000  4.23735876
   2.11867938  2.11867938  6.35603814
   0.00000000  0.00000000  6.35603814
   0.00000000  2.11867938  4.23735876
   2.11867938  4.23735876  0.00000000
   2.11867938  6.35603814  2.11867938
   0.00000000  4.23735876  2.11867938
   0.00000000  6.35603814  0.00000000
   2.11867938  4.23735876  4.23735876
   2.11867938  6.35603814  6.35603814
   0.00000000  4.23735876  6.35603814
   0.00000000  6.35603814  4.23735876
   6.35603814  0.00000000  0.00000000
   6.35603814  2.11867938  2.11867938
   4.23735876  0.00000000  2.11867938
   4.23735876  2.11867938  0.00000000
   6.35603814  0.00000000  4.23735876
   6.35603814  2.11867938  6.35603814
   4.23735876  0.00000000  6.35603814
   4.23735876  2.11867938  4.23735876
   6.35603814  4.23735876  0.00000000
   6.35603814  6.35603814  2.11867938
   4.23735876  4.23735876  2.11867938
   4.23735876  6.35603814  0.00000000
   6.35603814  4.23735876  4.23735876
   6.35603814  6.35603814  6.35603814
   4.23735876  4.23735876  6.35603814
   4.23735876  6.35603814  4.23735876
 


--------------------------------------------------------------------------------------------------------


 k-point  1 :   0.0000 0.0000 0.0000  plane waves:   15515
 k-point  2 :   0.3333-0.0000 0.0000  plane waves:   15431
 k-point  3 :   0.0000 0.3333 0.0000  plane waves:   15431
 k-point  4 :   0.3333 0.3333 0.0000  plane waves:   15456
 k-point  5 :  -0.3333 0.3333 0.0000  plane waves:   15456
 k-point  6 :  -0.0000 0.0000 0.3333  plane waves:   15431
 k-point  7 :   0.3333 0.0000 0.3333  plane waves:   15456
 k-point  8 :  -0.3333 0.0000 0.3333  plane waves:   15456
 k-point  9 :  -0.0000 0.3333 0.3333  plane waves:   15456
 k-point 10 :   0.3333 0.3333 0.3333  plane waves:   15465
 k-point 11 :  -0.3333 0.3333 0.3333  plane waves:   15465
 k-point 12 :  -0.0000-0.3333 0.3333  plane waves:   15456
 k-point 13 :   0.3333-0.3333 0.3333  plane waves:   15465
 k-point 14 :  -0.3333-0.3333 0.3333  plane waves:   15465

 maximum and minimum number of plane-waves per node :       812      742

 maximum number of plane-waves:     15515
 maximum index in each direction: 
   IXMAX=   15   IYMAX=   15   IZMAX=   15
   IXMIN=  -15   IYMIN=  -15   IZMIN=  -15

 WARNING: aliasing errors must be expected set NGX to  62 to avoid them
 WARNING: aliasing errors must be expected set NGY to  62 to avoid them
 WARNING: aliasing errors must be expected set NGZ to  62 to avoid them
 aliasing errors are usually negligible using standard VASP settings
 and one can safely disregard these warnings

 parallel 3D FFT for wavefunctions:
    minimum data exchange during FFTs selected (reduces bandwidth)
 parallel 3D FFT for charge:
    minimum data exchange during FFTs selected (reduces bandwidth)


 total amount of memory used by VASP on root node    95060. kBytes
========================================================================

   base      :      30000. kBytes
   nonl-proj :       4024. kBytes
   fftplans  :       1121. kBytes
   grid      :       2806. kBytes
   one-center:        124. kBytes
   wavefun   :      56985. kBytes
 
     INWAV:  cpu time    0.0000: real time    0.0000
 Broyden mixing: mesh for mixing (old mesh)
   NGX = 31   NGY = 31   NGZ = 31
  (NGX  = 96   NGY  = 96   NGZ  = 96)
  gives a total of  29791 points

 initial charge density was supplied:
 charge density of overlapping atoms calculated
 number of electron     512.0000000 magnetization     -15.0000000
 keeping initial charge density in first step


--------------------------------------------------------------------------------------------------------


 Maximum index for augmentation-charges          385 (set IRDMAX)


--------------------------------------------------------------------------------------------------------


 First call to EWALD:  gamma=   0.209
 Maximum number of real-space cells 3x 3x 3
 Maximum number of reciprocal cells 3x 3x 3

 FEWALD executed in parallel
    FEWALD:  cpu time    0.0034: real time    0.0034


----------------------------------------- Iteration    1(   1)  ---------------------------------------


vdW kernel read from vdw_kernel.bindat
  0.0000  0.2424  0.5071  0.7962  1.1119  1.4567  1.8333  2.2446  2.6937  3.1842
  3.7199  4.3049  4.9438  5.6415  6.4036  7.2358  8.1446  9.1372 10.2212 11.4050
 12.6979 14.1099 15.6519 17.3360 19.1751 21.1837 23.3773 25.7729 28.3892 31.2465
 34.3669 37.7748 41.4965 45.5611 50.0000
 
    POTLOK:  cpu time    0.6795: real time    0.6849
    SETDIJ:  cpu time    0.0152: real time    0.0153
     EDDAV:  cpu time   19.9723: real time   20.1164
 BZINTS: Fermi energy: 36.000619;512.000000 electrons
         Band energy:8104.500903;  BLOECHL correction: -0.075303
       DOS:  cpu time    0.0854: real time    0.0857
    --------------------------------------------
      LOOP:  cpu time   20.7552: real time   20.9059

 eigenvalue-minimisations  : 16800
 total energy-change (2. order) : 0.6965254E+04  (-0.2171488E+05)
 number of electron     512.0000000 magnetization     -15.0000000
 augmentation part      512.0000000 magnetization     -15.0000000

 Free energy of the ion-electron system (eV)
  ---------------------------------------------------
  alpha Z        PSCENC =      1996.20458154
  Ewald energy   TEWEN  =    -41013.82652005
  -Hartree energ DENC   =    -10752.41080210
  -exchange      EXHF   =         0.00000000
  -V(xc)+E(xc)   XCENC  =      1998.06478596
  PAW double counting   =     41818.24485065   -43977.75596094
  entropy T*S    EENTRO =         0.00000000
  eigenvalues    EBANDS =      8104.50090308
  atomic energy  EATOM  =     48792.23169816
  Solvation  Ediel_sol  =         0.00000000
  ---------------------------------------------------
  free energy    TOTEN  =      6965.25353630 eV

  energy without entropy =     6965.25353630  energy(sigma->0) =     6965.25353630


--------------------------------------------------------------------------------------------------------




----------------------------------------- Iteration    1(   2)  ---------------------------------------


     EDDAV:  cpu time   19.9473: real time   20.0762
 BZINTS: Fermi energy: 14.572428;512.000000 electrons
         Band energy:2651.464580;  BLOECHL correction: -0.015886
       DOS:  cpu time    0.0853: real time    0.0856
    --------------------------------------------
      LOOP:  cpu time   20.0366: real time   20.1711

 eigenvalue-minimisations  : 16800
 total energy-change (2. order) :-0.5453036E+04  (-0.5169866E+04)
 number of electron     512.0000000 magnetization     -15.0000000
 augmentation part      512.0000000 magnetization     -15.0000000

 Free energy of the ion-electron system (eV)
  ---------------------------------------------------
  alpha Z        PSCENC =      1996.20458154
  Ewald energy   TEWEN  =    -41013.82652005
  -Hartree energ DENC   =    -10752.41080210
  -exchange      EXHF   =         0.00000000
  -V(xc)+E(xc)   XCENC  =      1998.06478596
  PAW double counting   =     41818.24485065   -43977.75596094
  entropy T*S    EENTRO =         0.00000000
  eigenvalues    EBANDS =      2651.46457955
  atomic energy  EATOM  =     48792.23169816
  Solvation  Ediel_sol  =         0.00000000
  ---------------------------------------------------
  free energy    TOTEN  =      1512.21721277 eV

  energy without entropy =     1512.21721277  energy(sigma->0) =     1512.21721277


--------------------------------------------------------------------------------------------------------




----------------------------------------- Iteration    1(   3)  ---------------------------------------


     EDDAV:  cpu time   20.5180: real time   20.6474
 BZINTS: Fermi energy: 10.209376;512.000000 electrons
         Band energy:1182.787810;  BLOECHL correction: -0.012517
       DOS:  cpu time    0.0857: real time    0.0860
    --------------------------------------------
      LOOP:  cpu time   20.6072: real time   20.7418

 eigenvalue-minimisations  : 17480
 total energy-change (2. order) :-0.1468677E+04  (-0.1288861E+04)
 number of electron     512.0000000 magnetization     -15.0000000
 augmentation part      512.0000000 magnetization     -15.0000000

 Free energy of the ion-electron system (eV)
  ---------------------------------------------------
  alpha Z        PSCENC =      1996.20458154
  Ewald energy   TEWEN  =    -41013.82652005
  -Hartree energ DENC   =    -10752.41080210
  -exchange      EXHF   =         0.00000000
  -V(xc)+E(xc)   XCENC  =      1998.06478596
  PAW double counting   =     41818.24485065   -43977.75596094
  entropy T*S    EENTRO =         0.00000000
  eigenvalues    EBANDS =      1182.78780954
  atomic energy  EATOM  =     48792.23169816
  Solvation  Ediel_sol  =         0.00000000
  ---------------------------------------------------
  free energy    TOTEN  =        43.54044276 eV

  energy without entropy =       43.54044276  energy(sigma->0) =       43.54044276


--------------------------------------------------------------------------------------------------------




----------------------------------------- Iteration    1(   4)  ---------------------------------------


     EDDAV:  cpu time   21.2268: real time   21.3654
 BZINTS: Fermi energy:  9.876061;512.000000 electrons
         Band energy: 920.228544;  BLOECHL correction: -0.018646
       DOS:  cpu time    0.0897: real time    0.0900
    --------------------------------------------
      LOOP:  cpu time   21.3199: real time   21.4646

 eigenvalue-minimisations  : 18248
 total energy-change (2. order) :-0.2625593E+03  (-0.2525298E+03)
 number of electron     512.0000000 magnetization     -15.0000000
 augmentation part      512.0000000 magnetization     -15.0000000

 Free energy of the ion-electron system (eV)
  ---------------------------------------------------
  alpha Z        PSCENC =      1996.20458154
  Ewald energy   TEWEN  =    -41013.82652005
  -Hartree energ DENC   =    -10752.41080210
  -exchange      EXHF   =         0.00000000
  -V(xc)+E(xc)   XCENC  =      1998.06478596
  PAW double counting   =     41818.24485065   -43977.75596094
  entropy T*S    EENTRO =         0.00000000
  eigenvalues    EBANDS =       920.22854411
  atomic energy  EATOM  =     48792.23169816
  Solvation  Ediel_sol  =         0.00000000
  ---------------------------------------------------
  free energy    TOTEN  =      -219.01882267 eV

  energy without entropy =     -219.01882267  energy(sigma->0) =     -219.01882267


--------------------------------------------------------------------------------------------------------




----------------------------------------- Iteration    1(   5)  ---------------------------------------


     EDDAV:  cpu time   23.5627: real time   23.7164
 BZINTS: Fermi energy:  9.844322;512.000000 electrons
         Band energy: 906.008303;  BLOECHL correction: -0.013825
       DOS:  cpu time    0.0893: real time    0.0896
    CHARGE:  cpu time    0.4274: real time    0.4294
    MIXING:  cpu time    0.0034: real time    0.0035
    --------------------------------------------
      LOOP:  cpu time   24.0869: real time   24.2478

 eigenvalue-minimisations  : 20840
 total energy-change (2. order) :-0.1422024E+02  (-0.1371570E+02)
 number of electron     512.0001607 magnetization      -8.4406027
 augmentation part      209.5668623 magnetization      -7.1389320

 Broyden mixing:
  rms(total) = 0.13048E+02    rms(broyden)= 0.13041E+02
  rms(prec ) = 0.14876E+02
  weight for this iteration     100.00

 Free energy of the ion-electron system (eV)
  ---------------------------------------------------
  alpha Z        PSCENC =      1996.20458154
  Ewald energy   TEWEN  =    -41013.82652005
  -Hartree energ DENC   =    -10752.41080210
  -exchange      EXHF   =         0.00000000
  -V(xc)+E(xc)   XCENC  =      1998.06478596
  PAW double counting   =     41818.24485065   -43977.75596094
  entropy T*S    EENTRO =         0.00000000
  eigenvalues    EBANDS =       906.00830307
  atomic energy  EATOM  =     48792.23169816
  Solvation  Ediel_sol  =         0.00000000
  ---------------------------------------------------
  free energy    TOTEN  =      -233.23906370 eV

  energy without entropy =     -233.23906370  energy(sigma->0) =     -233.23906370


--------------------------------------------------------------------------------------------------------




----------------------------------------- Iteration    1(   6)  ---------------------------------------


    POTLOK:  cpu time    0.3311: real time    0.3326
    SETDIJ:  cpu time    0.0139: real time    0.0140
     EDDAV:  cpu time   26.1746: real time   26.3713
 BZINTS: Fermi energy:  6.092399;512.000000 electrons
         Band energy: 560.114471;  BLOECHL correction: -0.270043
       DOS:  cpu time    0.0813: real time    0.0816
    CHARGE:  cpu time    0.4305: real time    0.4324
    MIXING:  cpu time    0.0023: real time    0.0054
    --------------------------------------------
      LOOP:  cpu time   27.0346: real time   27.2438

 eigenvalue-minimisations  : 23792
 total energy-change (2. order) :-0.3642559E+02  (-0.9781782E+02)
 number of electron     512.0001409 magnetization      -5.1832388
 augmentation part      240.2974927 magnetization      -4.0672972

 Broyden mixing:
  rms(total) = 0.10993E+02    rms(broyden)= 0.10990E+02
  rms(prec ) = 0.13065E+02
  weight for this iteration     100.00

 eigenvalues of (default mixing * dielectric matrix)
  average eigenvalue GAMMA=   0.7800
  0.7800

 Free energy of the ion-electron system (eV)
  ---------------------------------------------------
  alpha Z        PSCENC =      1996.20458154
  Ewald energy   TEWEN  =    -41013.82652005
  -Hartree energ DENC   =    -10496.38218580
  -exchange      EXHF   =         0.00000000
  -V(xc)+E(xc)   XCENC  =      1920.43703855
  PAW double counting   =     44149.65313393   -46178.09687598
  entropy T*S    EENTRO =         0.00000000
  eigenvalues    EBANDS =       560.11447104
  atomic energy  EATOM  =     48792.23169816
  Solvation  Ediel_sol  =         0.00000000
  ---------------------------------------------------
  free energy    TOTEN  =      -269.66465860 eV

  energy without entropy =     -269.66465860  energy(sigma->0) =     -269.66465860


--------------------------------------------------------------------------------------------------------




----------------------------------------- Iteration    1(   7)  ---------------------------------------


    POTLOK:  cpu time    0.3331: real time    0.3345
    SETDIJ:  cpu time    0.0139: real time    0.0140
     EDDAV:  cpu time   23.2532: real time   23.3974
 BZINTS: Fermi energy:  7.533420;512.000000 electrons
         Band energy:1115.005739;  BLOECHL correction: -0.009145
       DOS:  cpu time    0.0817: real time    0.0820
    CHARGE:  cpu time    0.4180: real time    0.4195
    MIXING:  cpu time    0.0015: real time    0.0024
    --------------------------------------------
      LOOP:  cpu time   24.1025: real time   24.2557

 eigenvalue-minimisations  : 20464
 total energy-change (2. order) : 0.5046522E+02  (-0.2533122E+02)
 number of electron     512.0001339 magnetization      -7.6191016
 augmentation part      217.7459812 magnetization      -3.2785877

 Broyden mixing:
  rms(total) = 0.70971E+01    rms(broyden)= 0.70945E+01
  rms(prec ) = 0.98625E+01
  weight for this iteration     100.00

 eigenvalues of (default mixing * dielectric matrix)
  average eigenvalue GAMMA=   0.6223
  0.8254  0.4191

 Free energy of the ion-electron system (eV)
  ---------------------------------------------------
  alpha Z        PSCENC =      1996.20458154
  Ewald energy   TEWEN  =    -41013.82652005
  -Hartree energ DENC   =    -10786.20046261
  -exchange      EXHF   =         0.00000000
  -V(xc)+E(xc)   XCENC  =      1915.04245150
  PAW double counting   =     46009.01980184   -48246.67672519
  entropy T*S    EENTRO =         0.00000000
  eigenvalues    EBANDS =      1115.00573912
  atomic energy  EATOM  =     48792.23169816
  Solvation  Ediel_sol  =         0.00000000
  ---------------------------------------------------
  free energy    TOTEN  =      -219.19943568 eV

  energy without entropy =     -219.19943568  energy(sigma->0) =     -219.19943568


--------------------------------------------------------------------------------------------------------




----------------------------------------- Iteration    1(   8)  ---------------------------------------


    POTLOK:  cpu time    0.3323: real time    0.3338
    SETDIJ:  cpu time    0.0140: real time    0.0140
     EDDAV:  cpu time   26.2799: real time   26.4509
 BZINTS: Fermi energy:  8.545761;512.000000 electrons
         Band energy: 978.392488;  BLOECHL correction: -0.014787
       DOS:  cpu time    0.0881: real time    0.0884
    CHARGE:  cpu time    0.4413: real time    0.4429
    MIXING:  cpu time    0.0014: real time    0.0014
    --------------------------------------------
      LOOP:  cpu time   27.1579: real time   27.3383

 eigenvalue-minimisations  : 23912
 total energy-change (2. order) :-0.9841583E+02  (-0.2144995E+02)
 number of electron     512.0001706 magnetization      -4.2708466
 augmentation part      217.5125486 magnetization     -12.3169706

 Broyden mixing:
  rms(total) = 0.13376E+02    rms(broyden)= 0.13372E+02
  rms(prec ) = 0.19527E+02
  weight for this iteration     100.00

 eigenvalues of (default mixing * dielectric matrix)
  average eigenvalue GAMMA=   0.5195
  0.8110  0.5974  0.1502

 Free energy of the ion-electron system (eV)
  ---------------------------------------------------
  alpha Z        PSCENC =      1996.20458154
  Ewald energy   TEWEN  =    -41013.82652005
  -Hartree energ DENC   =    -10736.31565064
  -exchange      EXHF   =         0.00000000
  -V(xc)+E(xc)   XCENC  =      1912.83633605
  PAW double counting   =     46789.21527159   -49036.35347087
  entropy T*S    EENTRO =         0.00000000
  eigenvalues    EBANDS =       978.39248814
  atomic energy  EATOM  =     48792.23169816
  Solvation  Ediel_sol  =         0.00000000
  ---------------------------------------------------
  free energy    TOTEN  =      -317.61526607 eV

  energy without entropy =     -317.61526607  energy(sigma->0) =     -317.61526607


--------------------------------------------------------------------------------------------------------




----------------------------------------- Iteration    1(   9)  ---------------------------------------


    POTLOK:  cpu time    0.3343: real time    0.3358
    SETDIJ:  cpu time    0.0138: real time    0.0139
     EDDAV:  cpu time   26.1451: real time   26.3173
 BZINTS: Fermi energy:  7.935298;512.000000 electrons
         Band energy: 940.963804;  BLOECHL correction: -0.005143
       DOS:  cpu time    0.0891: real time    0.0894
    CHARGE:  cpu time    0.4245: real time    0.4261
    MIXING:  cpu time    0.0015: real time    0.0022
    --------------------------------------------
      LOOP:  cpu time   27.0096: real time   27.1908

 eigenvalue-minimisations  : 23792
 total energy-change (2. order) : 0.1060237E+02  (-0.1215183E+02)
 number of electron     512.0001784 magnetization      -3.3215433
 augmentation part      218.1318842 magnetization      -4.2251585

 Broyden mixing:
  rms(total) = 0.12093E+02    rms(broyden)= 0.12091E+02
  rms(prec ) = 0.18488E+02
  weight for this iteration     100.00

 eigenvalues of (default mixing * dielectric matrix)
  average eigenvalue GAMMA=   0.4157
  0.7905  0.6372  0.1511  0.0840

 Free energy of the ion-electron system (eV)
  ---------------------------------------------------
  alpha Z        PSCENC =      1996.20458154
  Ewald energy   TEWEN  =    -41013.82652005
  -Hartree energ DENC   =    -10691.55655909
  -exchange      EXHF   =         0.00000000
  -V(xc)+E(xc)   XCENC  =      1911.74517317
  PAW double counting   =     47343.93373506   -49586.70880744
  entropy T*S    EENTRO =         0.00000000
  eigenvalues    EBANDS =       940.96380357
  atomic energy  EATOM  =     48792.23169816
  Solvation  Ediel_sol  =         0.00000000
  ---------------------------------------------------
  free energy    TOTEN  =      -307.01289507 eV

  energy without entropy =     -307.01289507  energy(sigma->0) =     -307.01289507


--------------------------------------------------------------------------------------------------------




----------------------------------------- Iteration    1(  10)  ---------------------------------------


    POTLOK:  cpu time    0.3338: real time    0.3353
    SETDIJ:  cpu time    0.0139: real time    0.0140
     EDDAV:  cpu time   24.8910: real time   25.0518
 BZINTS: Fermi energy:  7.303422;512.000000 electrons
         Band energy: 955.767500;  BLOECHL correction: -0.002666
       DOS:  cpu time    0.0864: real time    0.0868
    CHARGE:  cpu time    0.4239: real time    0.4255
    MIXING:  cpu time    0.0016: real time    0.0016
    --------------------------------------------
      LOOP:  cpu time   25.7516: real time   25.9216

 eigenvalue-minimisations  : 22384
 total energy-change (2. order) : 0.4056850E+02  (-0.6357698E+01)
 number of electron     512.0001614 magnetization      -2.7030991
 augmentation part      219.7000872 magnetization      -4.7574999

 Broyden mixing:
  rms(total) = 0.93659E+01    rms(broyden)= 0.93633E+01
  rms(prec ) = 0.13231E+02
  weight for this iteration     100.00

 eigenvalues of (default mixing * dielectric matrix)
  average eigenvalue GAMMA=   0.3635
  0.7511  0.6879  0.1295  0.1295  0.1194

 Free energy of the ion-electron system (eV)
  ---------------------------------------------------
  alpha Z        PSCENC =      1996.20458154
  Ewald energy   TEWEN  =    -41013.82652005
  -Hartree energ DENC   =    -10668.32018714
  -exchange      EXHF   =         0.00000000
  -V(xc)+E(xc)   XCENC  =      1912.10003829
  PAW double counting   =     47660.06818926   -49900.66969721
  entropy T*S    EENTRO =         0.00000000
  eigenvalues    EBANDS =       955.76750016
  atomic energy  EATOM  =     48792.23169816
  Solvation  Ediel_sol  =         0.00000000
  ---------------------------------------------------
  free energy    TOTEN  =      -266.44439699 eV

  energy without entropy =     -266.44439699  energy(sigma->0) =     -266.44439699


--------------------------------------------------------------------------------------------------------




----------------------------------------- Iteration    1(  11)  ---------------------------------------


    POTLOK:  cpu time    0.3326: real time    0.3341
    SETDIJ:  cpu time    0.0139: real time    0.0140
     EDDAV:  cpu time   22.9643: real time   23.1142
 BZINTS: Fermi energy:  6.893541;512.000000 electrons
         Band energy: 968.687775;  BLOECHL correction: -0.011226
       DOS:  cpu time    0.0793: real time    0.0795
    CHARGE:  cpu time    0.4238: real time    0.4254
    MIXING:  cpu time    0.0014: real time    0.0014
    --------------------------------------------
      LOOP:  cpu time   23.8167: real time   23.9751

 eigenvalue-minimisations  : 20272
 total energy-change (2. order) : 0.2155075E+02  (-0.5189613E+01)
 number of electron     512.0001362 magnetization      -2.4951058
 augmentation part      221.2362464 magnetization      -2.4568183

 Broyden mixing:
  rms(total) = 0.53190E+01    rms(broyden)= 0.53157E+01
  rms(prec ) = 0.73103E+01
  weight for this iteration     100.00

 eigenvalues of (default mixing * dielectric matrix)
  average eigenvalue GAMMA=   0.3534
  0.7843  0.6800  0.2225  0.2225  0.1248  0.0861

 Free energy of the ion-electron system (eV)
  ---------------------------------------------------
  alpha Z        PSCENC =      1996.20458154
  Ewald energy   TEWEN  =    -41013.82652005
  -Hartree energ DENC   =    -10658.54467223
  -exchange      EXHF   =         0.00000000
  -V(xc)+E(xc)   XCENC  =      1911.99821443
  PAW double counting   =     47818.44809079   -50060.09281837
  entropy T*S    EENTRO =         0.00000000
  eigenvalues    EBANDS =       968.68777539
  atomic energy  EATOM  =     48792.23169816
  Solvation  Ediel_sol  =         0.00000000
  ---------------------------------------------------
  free energy    TOTEN  =      -244.89365034 eV

  energy without entropy =     -244.89365034  energy(sigma->0) =     -244.89365034


--------------------------------------------------------------------------------------------------------




----------------------------------------- Iteration    1(  12)  ---------------------------------------


    POTLOK:  cpu time    0.3332: real time    0.3348
    SETDIJ:  cpu time    0.0138: real time    0.0139
     EDDAV:  cpu time   22.8306: real time   22.9795
 BZINTS: Fermi energy:  6.992168;512.000000 electrons
         Band energy: 970.662651;  BLOECHL correction: -0.013708
       DOS:  cpu time    0.0774: real time    0.0776
    CHARGE:  cpu time    0.4252: real time    0.4268
    MIXING:  cpu time    0.0016: real time    0.0016
    --------------------------------------------
      LOOP:  cpu time   23.6828: real time   23.8411

 eigenvalue-minimisations  : 20040
 total energy-change (2. order) : 0.4218841E+01  (-0.2797078E+01)
 number of electron     512.0001354 magnetization      -2.9775841
 augmentation part      221.4252884 magnetization      -2.3841270

 Broyden mixing:
  rms(total) = 0.58069E+01    rms(broyden)= 0.58047E+01
  rms(prec ) = 0.85190E+01
  weight for this iteration     100.00

 eigenvalues of (default mixing * dielectric matrix)
  average eigenvalue GAMMA=   0.3491
  0.8350  0.6921  0.2914  0.2914  0.1351  0.0993  0.0993

 Free energy of the ion-electron system (eV)
  ---------------------------------------------------
  alpha Z        PSCENC =      1996.20458154
  Ewald energy   TEWEN  =    -41013.82652005
  -Hartree energ DENC   =    -10652.72538421
  -exchange      EXHF   =         0.00000000
  -V(xc)+E(xc)   XCENC  =      1911.80715237
  PAW double counting   =     48007.69735801   -50252.72634549
  entropy T*S    EENTRO =         0.00000000
  eigenvalues    EBANDS =       970.66265071
  atomic energy  EATOM  =     48792.23169816
  Solvation  Ediel_sol  =         0.00000000
  ---------------------------------------------------
  free energy    TOTEN  =      -240.67480896 eV

  energy without entropy =     -240.67480896  energy(sigma->0) =     -240.67480896


--------------------------------------------------------------------------------------------------------




----------------------------------------- Iteration    1(  13)  ---------------------------------------


    POTLOK:  cpu time    0.3332: real time    0.3347
    SETDIJ:  cpu time    0.0139: real time    0.0139
     EDDAV:  cpu time   23.1104: real time   23.2606
 BZINTS: Fermi energy:  7.028447;512.000000 electrons
         Band energy: 971.795226;  BLOECHL correction: -0.010341
       DOS:  cpu time    0.0821: real time    0.0824
    CHARGE:  cpu time    0.4251: real time    0.4266
    MIXING:  cpu time    0.0017: real time    0.0017
    --------------------------------------------
      LOOP:  cpu time   23.9677: real time   24.1261

 eigenvalue-minimisations  : 20360
 total energy-change (2. order) : 0.1251078E+01  (-0.2625964E+01)
 number of electron     512.0001440 magnetization      -3.4454577
 augmentation part      221.1257483 magnetization      -2.7874085

 Broyden mixing:
  rms(total) = 0.69392E+01    rms(broyden)= 0.69372E+01
  rms(prec ) = 0.10551E+02
  weight for this iteration     100.00

 eigenvalues of (default mixing * dielectric matrix)
  average eigenvalue GAMMA=   0.3381
  0.8640  0.6917  0.3498  0.3498  0.1495  0.1107  0.1107  0.0784

 Free energy of the ion-electron system (eV)
  ---------------------------------------------------
  alpha Z        PSCENC =      1996.20458154
  Ewald energy   TEWEN  =    -41013.82652005
  -Hartree energ DENC   =    -10648.34074032
  -exchange      EXHF   =         0.00000000
  -V(xc)+E(xc)   XCENC  =      1912.18242352
  PAW double counting   =     48248.67652141   -50498.34692074
  entropy T*S    EENTRO =         0.00000000
  eigenvalues    EBANDS =       971.79522583
  atomic energy  EATOM  =     48792.23169816
  Solvation  Ediel_sol  =         0.00000000
  ---------------------------------------------------
  free energy    TOTEN  =      -239.42373065 eV

  energy without entropy =     -239.42373065  energy(sigma->0) =     -239.42373065


--------------------------------------------------------------------------------------------------------




----------------------------------------- Iteration    1(  14)  ---------------------------------------


    POTLOK:  cpu time    0.3331: real time    0.3346
    SETDIJ:  cpu time    0.0139: real time    0.0140
     EDDAV:  cpu time   24.8754: real time   25.0319
 BZINTS: Fermi energy:  6.804740;512.000000 electrons
         Band energy: 978.563786;  BLOECHL correction: -0.001572
       DOS:  cpu time    0.0814: real time    0.0816
    CHARGE:  cpu time    0.4242: real time    0.4256
    MIXING:  cpu time    0.0018: real time    0.0018
    --------------------------------------------
      LOOP:  cpu time   25.7308: real time   25.8962

 eigenvalue-minimisations  : 22384
 total energy-change (2. order) : 0.6824596E+01  (-0.4060018E+01)
 number of electron     512.0001347 magnetization      -3.5483587
 augmentation part      221.4735728 magnetization      -3.4252779

 Broyden mixing:
  rms(total) = 0.40203E+01    rms(broyden)= 0.40187E+01
  rms(prec ) = 0.58246E+01
  weight for this iteration     100.00

 eigenvalues of (default mixing * dielectric matrix)
  average eigenvalue GAMMA=   0.3272
  0.7695  0.7695  0.4107  0.4107  0.1594  0.1333  0.1333  0.0793  0.0793

 Free energy of the ion-electron system (eV)
  ---------------------------------------------------
  alpha Z        PSCENC =      1996.20458154
  Ewald energy   TEWEN  =    -41013.82652005
  -Hartree energ DENC   =    -10646.55960963
  -exchange      EXHF   =         0.00000000
  -V(xc)+E(xc)   XCENC  =      1912.51137061
  PAW double counting   =     48372.74637905   -50624.47082115
  entropy T*S    EENTRO =         0.00000000
  eigenvalues    EBANDS =       978.56378643
  atomic energy  EATOM  =     48792.23169816
  Solvation  Ediel_sol  =         0.00000000
  ---------------------------------------------------
  free energy    TOTEN  =      -232.59913505 eV

  energy without entropy =     -232.59913505  energy(sigma->0) =     -232.59913505


--------------------------------------------------------------------------------------------------------




----------------------------------------- Iteration    1(  15)  ---------------------------------------


    POTLOK:  cpu time    0.3323: real time    0.3337
    SETDIJ:  cpu time    0.0138: real time    0.0138
     EDDAV:  cpu time   23.2498: real time   23.3952
 BZINTS: Fermi energy:  6.763404;512.000000 electrons
         Band energy: 983.372384;  BLOECHL correction: -0.001071
       DOS:  cpu time    0.0804: real time    0.0806
    CHARGE:  cpu time    0.4232: real time    0.4247
    MIXING:  cpu time    0.0020: real time    0.0020
    --------------------------------------------
      LOOP:  cpu time   24.1026: real time   24.2562

 eigenvalue-minimisations  : 20560
 total energy-change (2. order) : 0.3103867E+01  (-0.6491828E+00)
 number of electron     512.0001270 magnetization      -3.1866621
 augmentation part      221.7530895 magnetization      -3.2849666

 Broyden mixing:
  rms(total) = 0.24361E+01    rms(broyden)= 0.24341E+01
  rms(prec ) = 0.32392E+01
  weight for this iteration     100.00

 eigenvalues of (default mixing * dielectric matrix)
  average eigenvalue GAMMA=   0.3444
  0.8325  0.8325  0.4651  0.4651  0.2743  0.1507  0.1507  0.0999  0.0868  0.0868

 Free energy of the ion-electron system (eV)
  ---------------------------------------------------
  alpha Z        PSCENC =      1996.20458154
  Ewald energy   TEWEN  =    -41013.82652005
  -Hartree energ DENC   =    -10646.51446951
  -exchange      EXHF   =         0.00000000
  -V(xc)+E(xc)   XCENC  =      1912.98624824
  PAW double counting   =     48486.69757082   -50740.64676034
  entropy T*S    EENTRO =         0.00000000
  eigenvalues    EBANDS =       983.37238355
  atomic energy  EATOM  =     48792.23169816
  Solvation  Ediel_sol  =         0.00000000
  ---------------------------------------------------
  free energy    TOTEN  =      -229.49526760 eV

  energy without entropy =     -229.49526760  energy(sigma->0) =     -229.49526760


--------------------------------------------------------------------------------------------------------




----------------------------------------- Iteration    1(  16)  ---------------------------------------


    POTLOK:  cpu time    0.3349: real time    0.3364
    SETDIJ:  cpu time    0.0138: real time    0.0139
     EDDAV:  cpu time   23.1258: real time   23.2738
 BZINTS: Fermi energy:  6.931292;512.000000 electrons
         Band energy: 987.791876;  BLOECHL correction: -0.028288
       DOS:  cpu time    0.0755: real time    0.0758
    CHARGE:  cpu time    0.4554: real time    0.4571
    MIXING:  cpu time    0.0024: real time    0.0024
    --------------------------------------------
      LOOP:  cpu time   24.0088: real time   24.1669

 eigenvalue-minimisations  : 20464
 total energy-change (2. order) :-0.2658097E+00  (-0.4987549E+00)
 number of electron     512.0001231 magnetization      -2.9509369
 augmentation part      221.5377529 magnetization      -2.4531919

 Broyden mixing:
  rms(total) = 0.22843E+01    rms(broyden)= 0.22821E+01
  rms(prec ) = 0.32443E+01
  weight for this iteration     100.00

 eigenvalues of (default mixing * dielectric matrix)
  average eigenvalue GAMMA=   0.3462
  0.8742  0.8742  0.4236  0.4236  0.4541  0.1909  0.1489  0.1489  0.0993  0.0854
  0.0854

 Free energy of the ion-electron system (eV)
  ---------------------------------------------------
  alpha Z        PSCENC =      1996.20458154
  Ewald energy   TEWEN  =    -41013.82652005
  -Hartree energ DENC   =    -10647.99066883
  -exchange      EXHF   =         0.00000000
  -V(xc)+E(xc)   XCENC  =      1913.94705854
  PAW double counting   =     48727.31436631   -50985.43346918
  entropy T*S    EENTRO =         0.00000000
  eigenvalues    EBANDS =       987.79187618
  atomic energy  EATOM  =     48792.23169816
  Solvation  Ediel_sol  =         0.00000000
  ---------------------------------------------------
  free energy    TOTEN  =      -229.76107733 eV

  energy without entropy =     -229.76107733  energy(sigma->0) =     -229.76107733


--------------------------------------------------------------------------------------------------------




----------------------------------------- Iteration    1(  17)  ---------------------------------------


    POTLOK:  cpu time    0.3787: real time    0.3805
    SETDIJ:  cpu time    0.0139: real time    0.0140
     EDDAV:  cpu time   23.7181: real time   23.8723
 BZINTS: Fermi energy:  6.676723;512.000000 electrons
         Band energy: 991.321336;  BLOECHL correction:  0.000000
       DOS:  cpu time    0.0105: real time    0.0106
    CHARGE:  cpu time    0.4269: real time    0.4285
    MIXING:  cpu time    0.0021: real time    0.0021
    --------------------------------------------
      LOOP:  cpu time   24.5517: real time   24.7144

 eigenvalue-minimisations  : 21160
 total energy-change (2. order) : 0.2457594E+00  (-0.4259845E+00)
 number of electron     512.0001234 magnetization      -2.1442779
 augmentation part      221.6238898 magnetization      -2.3716829

 Broyden mixing:
  rms(total) = 0.15815E+01    rms(broyden)= 0.15797E+01
  rms(prec ) = 0.18993E+01
  weight for this iteration     100.00

 eigenvalues of (default mixing * dielectric matrix)
  average eigenvalue GAMMA=   0.3479
  0.9003  0.9003  0.4631  0.4631  0.4134  0.2948  0.1946  0.1378  0.1378  0.0853
  0.0853  0.0984

 Free energy of the ion-electron system (eV)
  ---------------------------------------------------
  alpha Z        PSCENC =      1996.20458154
  Ewald energy   TEWEN  =    -41013.82652005
  -Hartree energ DENC   =    -10649.18182745
  -exchange      EXHF   =         0.00000000
  -V(xc)+E(xc)   XCENC  =      1914.55157553
  PAW double counting   =     48878.15406259   -51138.97022401
  entropy T*S    EENTRO =         0.00000000
  eigenvalues    EBANDS =       991.32133578
  atomic energy  EATOM  =     48792.23169816
  Solvation  Ediel_sol  =         0.00000000
  ---------------------------------------------------
  free energy    TOTEN  =      -229.51531791 eV

  energy without entropy =     -229.51531791  energy(sigma->0) =     -229.51531791


--------------------------------------------------------------------------------------------------------




----------------------------------------- Iteration    1(  18)  ---------------------------------------


    POTLOK:  cpu time    0.3325: real time    0.3341
    SETDIJ:  cpu time    0.0138: real time    0.0139
     EDDAV:  cpu time   23.4232: real time   23.5772
 BZINTS: Fermi energy:  6.704355;512.000000 electrons
         Band energy: 993.620103;  BLOECHL correction:  0.000000
       DOS:  cpu time    0.0108: real time    0.0109
    CHARGE:  cpu time    0.4272: real time    0.4289
    MIXING:  cpu time    0.0024: real time    0.0024
    --------------------------------------------
      LOOP:  cpu time   24.2110: real time   24.3743

 eigenvalue-minimisations  : 20752
 total energy-change (2. order) : 0.9017233E-01  (-0.1770717E+00)
 number of electron     512.0001225 magnetization      -1.2068860
 augmentation part      221.5943667 magnetization      -1.3122320

 Broyden mixing:
  rms(total) = 0.11419E+01    rms(broyden)= 0.11414E+01
  rms(prec ) = 0.12236E+01
  weight for this iteration     100.00

 eigenvalues of (default mixing * dielectric matrix)
  average eigenvalue GAMMA=   0.3732
  0.9097  0.9097  0.6144  0.6144  0.3935  0.3935  0.2783  0.1933  0.1385  0.1385
  0.0855  0.0855  0.0973

 Free energy of the ion-electron system (eV)
  ---------------------------------------------------
  alpha Z        PSCENC =      1996.20458154
  Ewald energy   TEWEN  =    -41013.82652005
  -Hartree energ DENC   =    -10650.42234146
  -exchange      EXHF   =         0.00000000
  -V(xc)+E(xc)   XCENC  =      1915.59659022
  PAW double counting   =     49047.49911450   -51310.32837178
  entropy T*S    EENTRO =         0.00000000
  eigenvalues    EBANDS =       993.62010329
  atomic energy  EATOM  =     48792.23169816
  Solvation  Ediel_sol  =         0.00000000
  ---------------------------------------------------
  free energy    TOTEN  =      -229.42514558 eV

  energy without entropy =     -229.42514558  energy(sigma->0) =     -229.42514558


--------------------------------------------------------------------------------------------------------




----------------------------------------- Iteration    1(  19)  ---------------------------------------


    POTLOK:  cpu time    0.3338: real time    0.3355
    SETDIJ:  cpu time    0.0139: real time    0.0139
     EDDAV:  cpu time   24.3698: real time   24.5241
 BZINTS: Fermi energy:  6.435100;512.000000 electrons
         Band energy: 994.532972;  BLOECHL correction:  0.000000
       DOS:  cpu time    0.0112: real time    0.0113
    CHARGE:  cpu time    0.4329: real time    0.4344
    MIXING:  cpu time    0.0024: real time    0.0024
    --------------------------------------------
      LOOP:  cpu time   25.1653: real time   25.3276

 eigenvalue-minimisations  : 21776
 total energy-change (2. order) :-0.4544566E+00  (-0.1113677E+00)
 number of electron     512.0001220 magnetization      -0.0066023
 augmentation part      221.5700707 magnetization       0.0689727

 Broyden mixing:
  rms(total) = 0.79048E+00    rms(broyden)= 0.79026E+00
  rms(prec ) = 0.86078E+00
  weight for this iteration     100.00

 eigenvalues of (default mixing * dielectric matrix)
  average eigenvalue GAMMA=   0.4478
  1.1529  1.1529  0.8300  0.8300  0.4356  0.4356  0.4523  0.2421  0.1933  0.1383
  0.1383  0.0972  0.0855  0.0855

 Free energy of the ion-electron system (eV)
  ---------------------------------------------------
  alpha Z        PSCENC =      1996.20458154
  Ewald energy   TEWEN  =    -41013.82652005
  -Hartree energ DENC   =    -10650.88247791
  -exchange      EXHF   =         0.00000000
  -V(xc)+E(xc)   XCENC  =      1916.95365615
  PAW double counting   =     49221.04641332   -51486.13992486
  entropy T*S    EENTRO =         0.00000000
  eigenvalues    EBANDS =       994.53297150
  atomic energy  EATOM  =     48792.23169816
  Solvation  Ediel_sol  =         0.00000000
  ---------------------------------------------------
  free energy    TOTEN  =      -229.87960215 eV

  energy without entropy =     -229.87960215  energy(sigma->0) =     -229.87960215


--------------------------------------------------------------------------------------------------------




----------------------------------------- Iteration    1(  20)  ---------------------------------------


    POTLOK:  cpu time    0.3320: real time    0.3335
    SETDIJ:  cpu time    0.0139: real time    0.0140
     EDDAV:  cpu time   25.3051: real time   25.4707
 BZINTS: Fermi energy:  6.542252;512.000000 electrons
         Band energy: 994.216383;  BLOECHL correction:  0.000000
       DOS:  cpu time    0.0105: real time    0.0105
    CHARGE:  cpu time    0.4380: real time    0.4396
    MIXING:  cpu time    0.0028: real time    0.0028
    --------------------------------------------
[...]
   0.278E-01 -.322E-01 -.493E-02   0.192E-12 0.391E-13 -.817E-13   0.941E-03 -.129E-02 -.188E-03   -.288E-01 0.337E-01 0.515E-02
   0.149E-01 0.117E-01 0.899E-02   0.568E-13 0.481E-13 -.907E-13   0.599E-03 0.956E-03 0.416E-04   -.156E-01 -.130E-01 -.876E-02
   0.371E-01 0.327E-01 -.318E-01   -.118E-13 0.103E-12 0.660E-14   0.107E-02 0.159E-02 -.830E-03   -.382E-01 -.347E-01 0.324E-01
   0.257E-01 0.203E-03 -.154E-02   -.182E-12 0.582E-14 -.462E-13   0.122E-02 -.312E-03 0.247E-03   -.272E-01 0.287E-03 0.102E-02
   -.220E-01 0.889E-02 -.564E-02   0.103E-12 0.604E-13 -.711E-13   -.105E-02 0.119E-02 0.281E-03   0.232E-01 -.107E-01 0.515E-02
   -.354E-01 -.923E-02 -.276E-01   0.817E-13 0.173E-13 -.412E-13   -.136E-02 -.310E-03 -.769E-03   0.368E-01 0.965E-02 0.282E-01
   0.280E-01 0.296E-01 0.321E-01   0.154E-13 0.568E-13 0.337E-13   0.119E-02 0.161E-02 0.859E-03   -.295E-01 -.319E-01 -.327E-01
   0.326E-01 -.215E-01 0.134E-02   -.224E-13 0.628E-13 -.107E-13   0.177E-02 -.103E-02 -.272E-03   -.349E-01 0.228E-01 -.876E-03
   -.290E-01 0.214E-01 0.540E-02   0.178E-12 0.604E-13 -.533E-13   -.113E-02 0.130E-02 -.281E-03   0.302E-01 -.232E-01 -.495E-02
   -.363E-01 -.742E-02 0.273E-01   0.178E-12 0.651E-13 -.309E-13   -.134E-02 -.363E-03 0.730E-03   0.378E-01 0.786E-02 -.279E-01
   0.410E-01 -.328E-01 -.105E-01   0.164E-12 -.355E-14 0.269E-13   0.172E-02 -.155E-02 -.926E-04   -.430E-01 0.347E-01 0.102E-01
   0.371E-01 -.899E-04 0.156E-02   0.106E-12 0.925E-13 -.568E-13   0.112E-02 0.290E-03 0.191E-03   -.382E-01 -.422E-03 -.182E-02
   -.213E-01 -.919E-02 -.353E-02   0.131E-12 0.675E-13 -.782E-13   -.793E-03 -.117E-02 0.245E-03   0.222E-01 0.110E-01 0.310E-02
   -.139E-01 0.923E-02 -.150E-01   0.181E-12 0.347E-13 0.267E-14   -.574E-03 0.301E-03 -.640E-03   0.146E-01 -.960E-02 0.156E-01
   0.323E-01 -.298E-01 0.103E-01   0.141E-12 0.142E-12 0.159E-13   0.175E-02 -.165E-02 0.744E-04   -.346E-01 0.320E-01 -.100E-01
   0.433E-01 0.214E-01 -.156E-02   0.257E-12 0.568E-13 0.284E-13   0.169E-02 0.998E-03 -.207E-03   -.453E-01 -.227E-01 0.176E-02
   -.281E-01 -.214E-01 0.373E-02   0.192E-12 0.114E-12 -.675E-13   -.970E-03 -.133E-02 -.236E-03   0.291E-01 0.234E-01 -.324E-02
   -.149E-01 0.745E-02 0.151E-01   0.199E-12 0.147E-12 -.729E-13   -.632E-03 0.415E-03 0.667E-03   0.156E-01 -.793E-02 -.156E-01
   0.176E-01 0.184E-01 -.205E-01   0.138E-12 -.888E-15 0.282E-13   0.143E-02 0.128E-02 -.158E-02   -.180E-01 -.190E-01 0.211E-01
   0.235E-01 0.122E-02 0.164E-02   0.799E-13 0.608E-14 0.888E-15   0.292E-02 -.391E-03 0.271E-04   -.251E-01 -.111E-02 -.242E-02
   -.227E-01 0.750E-02 0.531E-02   0.144E-12 0.533E-14 0.151E-13   -.217E-02 0.995E-03 0.666E-03   0.241E-01 -.829E-02 -.493E-02
   -.209E-01 0.106E-02 -.102E-01   0.122E-13 0.390E-13 0.426E-14   -.178E-02 0.316E-03 -.149E-02   0.225E-01 -.769E-03 0.109E-01
   0.789E-02 0.148E-01 0.204E-01   0.163E-12 0.000E+00 -.178E-13   0.562E-03 0.108E-02 0.165E-02   -.907E-02 -.164E-01 -.211E-01
   0.443E-01 -.272E-01 -.185E-02   -.799E-14 0.310E-13 0.133E-13   0.421E-02 -.259E-02 0.115E-03   -.457E-01 0.294E-01 0.250E-02
   -.252E-01 0.672E-02 -.526E-02   0.867E-13 0.213E-13 0.320E-13   -.251E-02 0.134E-02 -.743E-03   0.260E-01 -.752E-02 0.492E-02
   -.121E-01 -.792E-02 0.102E-01   0.229E-13 0.203E-13 0.266E-13   -.153E-02 -.544E-03 0.146E-02   0.134E-01 0.776E-02 -.109E-01
   0.642E-02 -.184E-01 0.781E-02   0.382E-13 -.400E-13 0.285E-13   0.649E-03 -.127E-02 0.538E-03   -.678E-02 0.190E-01 -.926E-02
   0.135E-01 -.134E-02 0.508E-02   0.128E-12 0.498E-14 0.426E-13   0.165E-02 0.496E-03 0.757E-04   -.141E-01 0.116E-02 -.488E-02
   -.221E-01 -.741E-02 -.337E-02   -.455E-13 0.355E-14 0.329E-13   -.247E-02 -.108E-02 -.931E-04   0.232E-01 0.828E-02 0.337E-02
   -.335E-01 -.952E-03 -.108E-01   -.767E-13 -.177E-14 0.283E-13   -.290E-02 -.447E-03 -.116E-02   0.342E-01 0.788E-03 0.116E-01
   0.179E-01 -.148E-01 -.778E-02   0.711E-13 -.142E-13 0.248E-14   0.122E-02 -.106E-02 -.603E-03   -.182E-01 0.164E-01 0.929E-02
   0.718E-02 0.272E-01 -.522E-02   0.782E-13 -.636E-13 0.000E+00   0.177E-02 0.277E-02 0.205E-04   -.796E-02 -.295E-01 0.489E-02
   -.350E-01 -.662E-02 0.351E-02   0.133E-13 0.204E-13 0.497E-13   -.375E-02 -.148E-02 -.634E-04   0.386E-01 0.753E-02 -.335E-02
   -.231E-01 0.792E-02 0.109E-01   -.106E-12 0.151E-13 0.577E-13   -.227E-02 0.495E-03 0.102E-02   0.244E-01 -.773E-02 -.116E-01
   -.175E-01 0.577E-02 -.228E-01   -.373E-13 -.284E-13 0.454E-13   -.148E-02 0.188E-03 -.195E-02   0.180E-01 -.726E-02 0.229E-01
   -.235E-01 0.695E-03 -.680E-02   -.346E-13 -.261E-13 0.453E-13   -.288E-02 -.434E-03 -.343E-03   0.251E-01 0.533E-04 0.639E-02
   0.226E-01 0.174E-01 -.426E-02   -.856E-13 -.426E-13 0.213E-13   0.228E-02 0.227E-02 -.201E-07   -.241E-01 -.192E-01 0.384E-02
   0.209E-01 -.994E-02 -.308E-01   -.934E-14 -.143E-13 0.212E-13   0.174E-02 -.381E-03 -.289E-02   -.225E-01 0.103E-01 0.314E-01
   -.800E-02 0.396E-02 0.228E-01   0.213E-13 -.711E-14 -.606E-14   -.492E-03 0.422E-03 0.193E-02   0.912E-02 -.550E-02 -.228E-01
   -.442E-01 -.172E-01 0.699E-02   -.524E-13 0.221E-13 0.382E-13   -.435E-02 -.184E-02 0.413E-04   0.457E-01 0.172E-01 -.635E-02
   0.250E-01 0.438E-01 0.391E-02   -.144E-12 -.711E-14 0.639E-13   0.265E-02 0.421E-02 0.283E-03   -.260E-01 -.455E-01 -.371E-02
   0.121E-01 0.198E-02 0.307E-01   -.971E-13 -.804E-14 0.284E-13   0.165E-02 0.379E-03 0.294E-02   -.135E-01 -.145E-02 -.315E-01
   -.647E-02 -.578E-02 -.487E-02   -.435E-13 -.400E-13 0.564E-13   -.608E-03 -.231E-03 -.572E-03   0.679E-02 0.730E-02 0.579E-02
   -.135E-01 -.545E-03 -.509E-02   -.128E-12 -.296E-13 0.426E-13   -.171E-02 0.328E-03 -.403E-03   0.142E-01 -.889E-04 0.465E-02
   0.222E-01 -.175E-01 0.788E-02   -.131E-12 0.711E-14 0.639E-13   0.242E-02 -.216E-02 0.524E-03   -.232E-01 0.192E-01 -.796E-02
   0.335E-01 0.994E-02 -.446E-02   -.115E-12 -.214E-13 0.353E-13   0.288E-02 0.421E-03 -.885E-03   -.342E-01 -.103E-01 0.512E-02
   -.178E-01 -.402E-02 0.488E-02   -.924E-13 -.426E-13 0.284E-13   -.127E-02 -.419E-03 0.608E-03   0.181E-01 0.557E-02 -.585E-02
   -.728E-02 0.175E-01 0.512E-02   -.853E-13 -.361E-13 0.284E-13   -.160E-02 0.171E-02 0.385E-03   0.793E-02 -.173E-01 -.464E-02
   0.352E-01 -.438E-01 -.773E-02   -.272E-13 0.213E-13 0.568E-13   0.355E-02 -.409E-02 -.572E-03   -.386E-01 0.456E-01 0.786E-02
   0.231E-01 -.209E-02 0.435E-02   -.136E-12 -.142E-13 0.568E-13   0.225E-02 -.257E-03 0.100E-02   -.244E-01 0.143E-02 -.513E-02
 -----------------------------------------------------------------------------------------------
   -.546E-05 -.194E-03 -.278E-03   0.121E-12 0.289E-12 -.792E-14   0.822E-04 0.297E-04 -.310E-04   -.136E-03 0.226E-03 0.270E-03
 
 
 POSITION                                       TOTAL-FORCE (eV/Angst)
 -----------------------------------------------------------------------------------
      0.00000      0.00000      0.00000         0.000001     -0.000290     -0.000299
      0.00000      2.11868      2.11868         0.000323      0.000159     -0.000144
      2.11868      0.00000      2.11868        -0.000181     -0.000365     -0.000010
      2.11868      2.11868      0.00000        -0.000093      0.000320     -0.000434
      0.00000      0.00000      4.23736         0.000245     -0.000507      0.000233
      0.00000      2.11868      6.35604         0.000650      0.000239      0.000213
      2.11868      0.00000      6.35604        -0.000113     -0.000238     -0.000056
      2.11868      2.11868      4.23736        -0.000131      0.000320      0.000554
      0.00000      4.23736      0.00000         0.000333      0.000358     -0.000187
      0.00000      6.35604      2.11868        -0.000044     -0.000125      0.000061
      2.11868      4.23736      2.11868        -0.000051      0.000305     -0.000000
      2.11868      6.35604      0.00000        -0.000021     -0.000361     -0.000438
      0.00000      4.23736      4.23736         0.000552      0.000558      0.000387
      0.00000      6.35604      6.35604         0.000233     -0.000148      0.000023
      2.11868      4.23736      6.35604        -0.000045      0.000201      0.000033
      2.11868      6.35604      4.23736        -0.000106     -0.000313      0.000269
      4.23736      0.00000      0.00000        -0.000069     -0.000394     -0.000293
      4.23736      2.11868      2.11868        -0.000304      0.000178     -0.000263
      6.35604      0.00000      2.11868         0.000100     -0.000649     -0.000214
      6.35604      2.11868      0.00000         0.000081      0.000108     -0.000196
      4.23736      0.00000      4.23736        -0.000288     -0.000648      0.000266
      4.23736      2.11868      6.35604        -0.000535      0.000214      0.000198
      6.35604      0.00000      6.35604         0.000088     -0.000478      0.000179
      6.35604      2.11868      4.23736         0.000135      0.000073      0.000186
      4.23736      4.23736      0.00000        -0.000292      0.000356     -0.000376
      4.23736      6.35604      2.11868        -0.000037     -0.000223     -0.000063
      6.35604      4.23736      2.11868         0.000126      0.000628     -0.000181
      6.35604      6.35604      0.00000         0.000069     -0.000074     -0.000053
      4.23736      4.23736      4.23736        -0.000486      0.000504      0.000287
      4.23736      6.35604      6.35604        -0.000267     -0.000311     -0.000015
      6.35604      4.23736      6.35604         0.000054      0.000616      0.000254
      6.35604      6.35604      4.23736         0.000060     -0.000065      0.000140
      2.11868      0.00000      0.00000         0.000978      0.000643     -0.000952
      2.11868      2.11868      2.11868         0.001317     -0.000285     -0.000752
      0.00000      0.00000      2.11868        -0.000750      0.000202      0.001046
      0.00000      2.11868      0.00000        -0.000189      0.000603     -0.000722
      2.11868      0.00000      4.23736        -0.000625     -0.000488      0.000967
      2.11868      2.11868      6.35604         0.002783     -0.000362      0.000770
      0.00000      0.00000      6.35604        -0.001708      0.000543     -0.001078
      0.00000      2.11868      4.23736        -0.000179     -0.000708      0.000704
      2.11868      4.23736      0.00000         0.000287     -0.000644     -0.000916
      2.11868      6.35604      2.11868         0.001022      0.000313      0.000280
      0.00000      4.23736      2.11868        -0.001408     -0.000218     -0.000093
      0.00000      6.35604      0.00000        -0.002144     -0.000612     -0.000394
      2.11868      4.23736      4.23736         0.000886      0.000475      0.000900
      2.11868      6.35604      6.35604         0.000986      0.000388     -0.000303
      0.00000      4.23736      6.35604        -0.000137     -0.000576      0.000098
      0.00000      6.35604      4.23736        -0.000897      0.000691      0.000376
      6.35604      0.00000      0.00000        -0.000981     -0.001303     -0.001873
      6.35604      2.11868      2.11868        -0.001305      0.000313     -0.000755
      4.23736      0.00000      2.11868         0.000761      0.000494     -0.000428
      4.23736      2.11868      0.00000         0.000197     -0.000050     -0.002237
      6.35604      0.00000      4.23736         0.000628     -0.001116      0.001881
      6.35604      2.11868      6.35604        -0.002811     -0.001921      0.000685
      4.23736      0.00000      6.35604         0.001702      0.002432      0.000480
      4.23736      2.11868      4.23736         0.000237      0.000911      0.002229
      6.35604      4.23736      0.00000        -0.000282      0.001291      0.000351
      6.35604      6.35604      2.11868        -0.001042     -0.000307     -0.000846
      4.23736      4.23736      2.11868         0.001399     -0.000491      0.000448
      4.23736      6.35604      0.00000         0.002153      0.000075     -0.000221
      6.35604      4.23736      4.23736        -0.000898      0.001126     -0.000352
      6.35604      6.35604      6.35604        -0.000946      0.001936      0.000858
      4.23736      4.23736      6.35604         0.000114     -0.002384     -0.000439
      4.23736      6.35604      4.23736         0.000863     -0.000918      0.000230
 -----------------------------------------------------------------------------------
    total drift:                               -0.000060      0.000062     -0.000039


--------------------------------------------------------------------------------------------------------



  FREE ENERGIE OF THE ION-ELECTRON SYSTEM (eV)
  ---------------------------------------------------
  free  energy   TOTEN  =      -230.10767304 eV

  energy  without entropy=     -230.10767304  energy(sigma->0) =     -230.10767304
 


--------------------------------------------------------------------------------------------------------


    POTLOK:  cpu time    0.3549: real time    0.3568


--------------------------------------------------------------------------------------------------------


 writing wavefunctions
     LOOP+:  cpu time  945.4743: real time  951.7141
    4ORBIT:  cpu time    0.0000: real time    0.0000
 


 total charge     
 
# of ion     s       p       d       tot
----------------------------------------
  1        0.309   0.359   8.260   8.928
  2        0.309   0.359   8.260   8.928
  3        0.309   0.359   8.260   8.928
  4        0.309   0.359   8.260   8.928
  5        0.309   0.359   8.260   8.928
  6        0.309   0.359   8.260   8.928
  7        0.309   0.359   8.260   8.928
  8        0.309   0.359   8.260   8.928
  9        0.309   0.359   8.260   8.928
 10        0.309   0.359   8.260   8.928
 11        0.309   0.359   8.260   8.928
 12        0.309   0.359   8.259   8.928
 13        0.309   0.359   8.260   8.928
 14        0.309   0.359   8.260   8.928
 15        0.309   0.359   8.259   8.927
 16        0.309   0.359   8.260   8.928
 17        0.309   0.359   8.260   8.928
 18        0.309   0.359   8.261   8.929
 19        0.309   0.359   8.260   8.928
 20        0.309   0.359   8.260   8.928
 21        0.309   0.359   8.260   8.928
 22        0.309   0.359   8.262   8.930
 23        0.309   0.359   8.261   8.929
 24        0.309   0.359   8.260   8.928
 25        0.309   0.359   8.260   8.928
 26        0.309   0.359   8.260   8.928
 27        0.309   0.359   8.260   8.928
 28        0.309   0.359   8.260   8.929
 29        0.309   0.359   8.260   8.929
 30        0.309   0.359   8.260   8.928
 31        0.309   0.359   8.260   8.928
 32        0.309   0.359   8.260   8.928
 33        1.574   3.421   0.000   4.995
 34        1.574   3.421   0.000   4.995
 35        1.574   3.421   0.000   4.995
 36        1.574   3.421   0.000   4.995
 37        1.574   3.421   0.000   4.995
 38        1.574   3.421   0.000   4.995
 39        1.574   3.421   0.000   4.995
 40        1.574   3.421   0.000   4.995
 41        1.574   3.421   0.000   4.995
 42        1.574   3.421   0.000   4.995
 43        1.574   3.421   0.000   4.995
 44        1.574   3.421   0.000   4.995
 45        1.574   3.421   0.000   4.995
 46        1.574   3.421   0.000   4.995
 47        1.574   3.421   0.000   4.995
 48        1.574   3.421   0.000   4.995
 49        1.574   3.421   0.000   4.995
 50        1.574   3.421   0.000   4.995
 51        1.574   3.421   0.000   4.995
 52        1.574   3.421   0.000   4.995
 53        1.574   3.421   0.000   4.995
 54        1.574   3.421   0.000   4.995
 55        1.574   3.421   0.000   4.995
 56        1.574   3.421   0.000   4.995
 57        1.574   3.421   0.000   4.995
 58        1.574   3.421   0.000   4.995
 59        1.574   3.421   0.000   4.995
 60        1.574   3.421   0.000   4.995
 61        1.574   3.421   0.000   4.995
 62        1.574   3.421   0.000   4.995
 63        1.574   3.421   0.000   4.995
 64        1.574   3.421   0.000   4.995
------------------------------------------------
tot       60.268 120.957 264.323 445.549
 


 magnetization (x)
 
# of ion     s       p       d       tot
----------------------------------------
  1        0.008   0.012  -1.372  -1.352
  2       -0.008  -0.012   1.372   1.352
  3       -0.008  -0.012   1.372   1.352
  4       -0.008  -0.012   1.372   1.352
  5       -0.008  -0.012   1.372   1.352
  6        0.008   0.012  -1.372  -1.351
  7        0.008   0.012  -1.372  -1.352
  8        0.008   0.012  -1.372  -1.352
  9       -0.008  -0.012   1.372   1.352
 10        0.008   0.012  -1.372  -1.352
 11        0.008   0.012  -1.372  -1.352
 12        0.008   0.012  -1.372  -1.352
 13        0.008   0.012  -1.372  -1.352
 14       -0.008  -0.012   1.372   1.352
 15       -0.008  -0.012   1.373   1.352
 16       -0.008  -0.012   1.372   1.352
 17       -0.008  -0.012   1.372   1.352
 18        0.008   0.012  -1.371  -1.351
 19        0.008   0.012  -1.372  -1.352
 20        0.008   0.012  -1.372  -1.351
 21        0.008   0.012  -1.372  -1.352
 22       -0.008  -0.012   1.370   1.350
 23       -0.008  -0.012   1.371   1.351
 24       -0.008  -0.012   1.372   1.352
 25        0.008   0.012  -1.372  -1.352
 26       -0.008  -0.012   1.372   1.352
 27       -0.008  -0.012   1.372   1.352
 28       -0.008  -0.012   1.372   1.351
 29       -0.008  -0.012   1.372   1.351
 30        0.008   0.012  -1.372  -1.351
 31        0.008   0.012  -1.372  -1.352
 32        0.008   0.012  -1.372  -1.352
 33       -0.000  -0.000   0.000  -0.000
 34        0.000  -0.000   0.000  -0.000
 35        0.000  -0.000   0.000  -0.000
 36        0.000  -0.000   0.000  -0.000
 37        0.000  -0.000   0.000  -0.000
 38        0.000   0.000   0.000   0.000
 39       -0.000   0.000   0.000   0.000
 40       -0.000  -0.000   0.000  -0.000
 41       -0.000   0.000   0.000   0.000
 42       -0.000   0.000   0.000   0.000
 43       -0.000   0.000   0.000   0.000
 44       -0.000   0.000   0.000   0.000
 45        0.000  -0.000   0.000  -0.000
 46        0.000  -0.000   0.000  -0.000
 47        0.000  -0.000   0.000  -0.000
 48        0.000  -0.000   0.000   0.000
 49       -0.000   0.000   0.000   0.000
 50        0.000  -0.000   0.000  -0.000
 51        0.000  -0.000   0.000  -0.000
 52        0.000   0.000   0.000   0.000
 53       -0.000   0.000   0.000   0.000
 54       -0.000   0.000   0.000   0.000
 55       -0.000   0.000   0.000   0.000
 56       -0.000   0.000   0.000   0.000
 57        0.000   0.000   0.000   0.000
 58       -0.000   0.000   0.000   0.000
 59       -0.000   0.000   0.000   0.000
 60       -0.000   0.000   0.000   0.000
 61       -0.000  -0.000   0.000  -0.000
 62       -0.000   0.000   0.000   0.000
 63       -0.000   0.000   0.000   0.000
 64        0.000  -0.000   0.000  -0.000
------------------------------------------------
tot       -0.000   0.001  -0.001  -0.000
 
 BZINTS: Fermi energy:  6.388475;512.000000 electrons
         Band energy: 995.775631;  BLOECHL correction:  0.000000

 total amount of memory used by VASP on root node    95060. kBytes
========================================================================

   base      :      30000. kBytes
   nonl-proj :       4024. kBytes
   fftplans  :       1121. kBytes
   grid      :       2806. kBytes
   one-center:        124. kBytes
   wavefun   :      56985. kBytes
 
  
  
 General timing and accounting informations for this job:
 ========================================================
  
                  Total CPU time used (sec):      966.579
                            User time (sec):      961.691
                          System time (sec):        4.888
                         Elapsed time (sec):      973.492
  
                   Maximum memory used (kb):      378020.
                   Average memory used (kb):           0.
  
                          Minor page faults:       168400
                          Major page faults:         1393
                 Voluntary context switches:         3534
