       N       E                     dE             d eps       ncg     rms          rms(c)
DAV:   1    -0.122014249963E+02   -0.12201E+02   -0.43953E+00   128   0.584E+00    0.196E+00
RMM:   2    -0.120861336726E+02    0.11529E+00   -0.25229E-01   134   0.117E+00    0.102E+00
RMM:   3    -0.120634893371E+02    0.22644E-01   -0.29541E-02   151   0.399E-01    0.436E-01
RMM:   4    -0.120559035112E+02    0.75858E-02   -0.25194E-02   140   0.353E-01    0.145E-01
RMM:   5    -0.120556850262E+02    0.21849E-03   -0.67361E-04   139   0.692E-02    0.179E-01
RMM:   6    -0.120563208146E+02   -0.63579E-03   -0.43441E-04   134   0.532E-02    0.622E-02
RMM:   7    -0.120567280465E+02   -0.40723E-03   -0.21579E-04   134   0.372E-02    0.194E-02
RMM:   8    -0.120569644525E+02   -0.23641E-03   -0.55006E-05   138   0.185E-02    0.161E-02
RMM:   9    -0.120570701970E+02   -0.10574E-03   -0.70900E-05   133   0.165E-02    0.121E-02
RMM:  10    -0.120570225805E+02    0.47616E-04   -0.22797E-05   132   0.959E-03    0.679E-03
RMM:  11    -0.120570401591E+02   -0.17579E-04   -0.16530E-05   131   0.853E-03    0.422E-03
RMM:  12    -0.120570502485E+02   -0.10089E-04   -0.39201E-06   129   0.512E-03    0.259E-03
RMM:  13    -0.120570674223E+02   -0.17174E-04   -0.20117E-06   137   0.406E-03    0.139E-03
RMM:  14    -0.120570834013E+02   -0.15979E-04   -0.15641E-06   128   0.315E-03    0.108E-03
RMM:  15    -0.120570833793E+02    0.22029E-07   -0.23556E-07   149   0.142E-03
   1 F= -.12057083E+02 E0= -.12058863E+02  d E =0.533917E-02  mag=    -0.0411
