 vasp.5.4.1 05Feb16 (build Aug 29 2016 09:43:08) gamma-only                     
  
 executed on           IFC91_ompi date 2022.10.05  14:11:17
 running on   32 total cores
 distrk:  each k-point on   32 cores,    1 groups
 distr:  one band on NCORES_PER_BAND=   1 cores,   32 groups


--------------------------------------------------------------------------------------------------------


 INCAR:
 POTCAR:    PAW_PBE C 08Apr2002                   
 POTCAR:    PAW_PBE O 08Apr2002                   

 ----------------------------------------------------------------------------- 
|                                                                             |
|           W    W    AA    RRRRR   N    N  II  N    N   GGGG   !!!           |
|           W    W   A  A   R    R  NN   N  II  NN   N  G    G  !!!           |
|           W    W  A    A  R    R  N N  N  II  N N  N  G       !!!           |
|           W WW W  AAAAAA  RRRRR   N  N N  II  N  N N  G  GGG   !            |
|           WW  WW  A    A  R   R   N   NN  II  N   NN  G    G                |
|           W    W  A    A  R    R  N    N  II  N    N   GGGG   !!!           |
|                                                                             |
|      For optimal performance we recommend to set                            |
|        NCORE= 4 - approx SQRT( number of cores)                             |
|      NCORE specifies how many cores store one orbital (NPAR=cpu/NCORE).     |
|      This setting can  greatly improve the performance of VASP for DFT.     |
|      The default, NPAR=number of cores might be grossly inefficient         |
|      on modern multi-core architectures or massively parallel machines.     |
|      Do your own testing !!!!                                               |
|      Unfortunately you need to use the default for GW and RPA calculations. |
|      (for HF NCORE is supported but not extensively tested yet)             |
|                                                                             |
 ----------------------------------------------------------------------------- 


 ----------------------------------------------------------------------------- 
|                                                                             |
|  ADVICE TO THIS USER RUNNING 'VASP/VAMP'   (HEAR YOUR MASTER'S VOICE ...):  |
|                                                                             |
|      You have switched on vdW-DFT.                                          |
|      This routine was written and supplied by Jiri Klimes.                  |
|      We recommed that you carefully read and cite the following             |
|      publication                                                            |
|      J. Klimes, D.R. Bowler, A. Michelides                                  |
|        J. Phys.: Cond Matt. 22 022201 (2010)                                |
|      J. Klimes, D.R. Bowler, A. Michelides                                  |
|        Phys. Rev. B. 83, 195131 (2011)                                      |
|      and references therein.                                                |
|                                                                             |
 ----------------------------------------------------------------------------- 

 POTCAR:    PAW_PBE C 08Apr2002                   
   VRHFIN =C: s2p2                                                              
   LEXCH  = PE                                                                  
   EATOM  =   147.1560 eV,   10.8157 Ry                                         
                                                                                
   TITEL  = PAW_PBE C 08Apr2002                                                 
   LULTRA =        F    use ultrasoft PP ?                                      
   IUNSCR =        1    unscreen: 0-lin 1-nonlin 2-no                           
   RPACOR =    1.200    partial core radius                                     
   POMASS =   12.011; ZVAL   =    4.000    mass and valenz                      
   RCORE  =    1.500    outmost cutoff radius                                   
   RWIGS  =    1.630; RWIGS  =    0.863    wigner-seitz radius (au A)           
   ENMAX  =  400.000; ENMIN  =  300.000 eV                                      
   ICORE  =        2    local potential                                         
   LCOR   =        T    correct aug charges                                     
   LPAW   =        T    paw PP                                                  
   EAUG   =  644.873                                                            
   DEXC   =    0.000                                                            
   RMAX   =    1.529    core radius for proj-oper                               
   RAUG   =    1.300    factor for augmentation sphere                          
   RDEP   =    1.501    radius for radial grids                                 
   RDEPT  =    1.300    core radius for aug-charge                              
                                                                                
   Atomic configuration                                                         
    4 entries                                                                   
     n  l   j            E        occ.                                          
     1  0  0.50      -273.3789   2.0000                                         
     2  0  0.50       -13.7508   2.0000                                         
     2  1  0.50        -5.2854   2.0000                                         
     3  2  1.50        -5.4423   0.0000                                         
   Description                                                                  
     l       E           TYP  RCUT    TYP  RCUT                                 
     0    -13.7508458     23  1.200                                             
     0     -8.2022199     23  1.200                                             
     1     -5.2854383     23  1.500                                             
     1     34.0145650     23  1.500                                             
     2     -5.4423304      7  1.500                                             
  local pseudopotential read in
  partial core-charges read in
  partial kinetic energy density read in
  atomic valenz-charges read in
  non local Contribution for L=           0  read in
    real space projection operators read in
  non local Contribution for L=           0  read in
    real space projection operators read in
  non local Contribution for L=           1  read in
    real space projection operators read in
  non local Contribution for L=           1  read in
    real space projection operators read in
    PAW grid and wavefunctions read in
 
   number of l-projection  operators is LMAX  =           4
   number of lm-projection operators is LMMAX =           8
 
 POTCAR:    PAW_PBE O 08Apr2002                   
   VRHFIN =O: s2p4                                                              
   LEXCH  = PE                                                                  
   EATOM  =   432.3788 eV,   31.7789 Ry                                         
                                                                                
   TITEL  = PAW_PBE O 08Apr2002                                                 
   LULTRA =        F    use ultrasoft PP ?                                      
   IUNSCR =        1    unscreen: 0-lin 1-nonlin 2-no                           
   RPACOR =    1.200    partial core radius                                     
   POMASS =   16.000; ZVAL   =    6.000    mass and valenz                      
   RCORE  =    1.520    outmost cutoff radius                                   
   RWIGS  =    1.550; RWIGS  =    0.820    wigner-seitz radius (au A)           
   ENMAX  =  400.000; ENMIN  =  300.000 eV                                      
   ICORE  =        2    local potential                                         
   LCOR   =        T    correct aug charges                                     
   LPAW   =        T    paw PP                                                  
   EAUG   =  605.392                                                            
   DEXC   =    0.000                                                            
   RMAX   =    1.553    core radius for proj-oper                               
   RAUG   =    1.300    factor for augmentation sphere                          
   RDEP   =    1.550    radius for radial grids                                 
   RDEPT  =    1.329    core radius for aug-charge                              
                                                                                
   Atomic configuration                                                         
    4 entries                                                                   
     n  l   j            E        occ.                                          
     1  0  0.50      -514.6923   2.0000                                         
     2  0  0.50       -23.9615   2.0000                                         
     2  1  0.50        -9.0305   4.0000                                         
     3  2  1.50        -9.5241   0.0000                                         
   Description                                                                  
     l       E           TYP  RCUT    TYP  RCUT                                 
     0    -23.9615318     23  1.200                                             
     0     -9.5240782     23  1.200                                             
     1     -9.0304911     23  1.520                                             
     1      8.1634956     23  1.520                                             
     2     -9.5240782      7  1.500                                             
  local pseudopotential read in
  partial core-charges read in
  partial kinetic energy density read in
  kinetic energy density of atom read in
  atomic valenz-charges read in
  non local Contribution for L=           0  read in
    real space projection operators read in
  non local Contribution for L=           0  read in
    real space projection operators read in
  non local Contribution for L=           1  read in
    real space projection operators read in
  non local Contribution for L=           1  read in
    real space projection operators read in
    PAW grid and wavefunctions read in
 
   number of l-projection  operators is LMAX  =           4
   number of lm-projection operators is LMMAX =           8
 

 ----------------------------------------------------------------------------- 
|                                                                             |
|  ADVICE TO THIS USER RUNNING 'VASP/VAMP'   (HEAR YOUR MASTER'S VOICE ...):  |
|                                                                             |
|      You enforced a specific xc-type in the INCAR file,                     |
|      a different type was found on the POTCAR file                          |
|          I HOPE YOU KNOW, WHAT YOU ARE  DOING                               |
|                                                                             |
 ----------------------------------------------------------------------------- 

  PAW_PBE C 08Apr2002                   :
 energy of atom  1       EATOM= -147.1560
 kinetic energy error for atom=    0.0076 (will be added to EATOM!!)
  PAW_PBE O 08Apr2002                   :
 energy of atom  2       EATOM= -432.3788
 kinetic energy error for atom=    0.0224 (will be added to EATOM!!)
 
 
 POSCAR:  C  O                                   
  positions in cartesian coordinates
  No initial velocities read in
 exchange correlation table for  LEXCH =       17
   RHO(1)=    0.500       N(1)  =     2000
   RHO(2)=  100.500       N(2)  =     4000
 


--------------------------------------------------------------------------------------------------------


 ion  position               nearest neighbor table
   1  0.520  0.500  0.499-   2 1.13
   2  0.520  0.500  0.386-   1 1.13
 

IMPORTANT INFORMATION: All symmetrisations will be switched off!
NOSYMM: (Re-)initialisation of all symmetry stuff for point group C_1.

 
 
 KPOINTS: KPOINTS created by Atomic Simulation Env

Automatic generation of k-mesh.
Space group operators:
 irot       det(A)        alpha          n_x          n_y          n_z        tau_x        tau_y        tau_z
    1     1.000000     0.000000     1.000000     0.000000     0.000000     0.000000     0.000000     0.000000
 
 Subroutine IBZKPT returns following result:
 ===========================================
 
 Found      1 irreducible k-points:
 
 Following reciprocal coordinates:
            Coordinates               Weight
  0.000000  0.000000  0.000000      1.000000
 
 Following cartesian coordinates:
            Coordinates               Weight
  0.000000  0.000000  0.000000      1.000000
 


--------------------------------------------------------------------------------------------------------




 Dimension of arrays:
   k-points           NKPTS =      1   k-points in BZ     NKDIM =      1   number of bands    NBANDS=     32
   number of dos      NEDOS =    301   number of ions     NIONS =      2
   non local maximal  LDIM  =      4   non local SUM 2l+1 LMDIM =      8
   total plane-waves  NPLWV = 175616
   max r-space proj   IRMAX =      1   max aug-charges    IRDMAX=   2478
   dimension x,y,z NGX =    56 NGY =   56 NGZ =   56
   dimension x,y,z NGXF=   112 NGYF=  112 NGZF=  112
   support grid    NGXF=   112 NGYF=  112 NGZF=  112
   ions per type =               1   1
 NGX,Y,Z   is equivalent  to a cutoff of   9.31,  9.31,  9.31 a.u.
 NGXF,Y,Z  is equivalent  to a cutoff of  18.62, 18.62, 18.62 a.u.


 I would recommend the setting:
   dimension x,y,z NGX =    55 NGY =   55 NGZ =   55
 SYSTEM =  unknown system                          
 POSCAR =   C  O                                   

 Startparameter for this run:
   NWRITE =      2    write-flag & timer
   PREC   = normal    normal or accurate (medium, high low for compatibility)
   ISTART =      1    job   : 0-new  1-cont  2-samecut
   ICHARG =      0    charge: 1-file 2-atom 10-const
   ISPIN  =      2    spin polarized calculation?
   LNONCOLLINEAR =      F non collinear calculations
   LSORBIT =      F    spin-orbit coupling
   INIWAV =      1    electr: 0-lowe 1-rand  2-diag
   LASPH  =      F    aspherical Exc in radial PAW
   METAGGA=      F    non-selfconsistent MetaGGA calc.

 Electronic Relaxation 1
   ENCUT  =  500.0 eV  36.75 Ry    6.06 a.u.  18.23 18.23 18.23*2*pi/ulx,y,z
   ENINI  =  500.0     initial cutoff
   ENAUG  =  644.9 eV  augmentation charge cutoff
   NELM   =    450;   NELMIN=  2; NELMDL=  0     # of ELM steps 
   EDIFF  = 0.1E-06   stopping-criterion for ELM
   LREAL  =      F    real-space projection
   NLSPLINE    = F    spline interpolate recip. space projectors
   LCOMPAT=      F    compatible to vasp.4.4
   GGA_COMPAT  = T    GGA compatible to vasp.4.4-vasp.4.6
   LMAXPAW     = -100 max onsite density
   LMAXMIX     =    2 max onsite mixed and CHGCAR
   VOSKOWN=      0    Vosko Wilk Nusair interpolation
   ROPT   =    0.00000   0.00000
 Ionic relaxation
   EDIFFG = -.1E-01   stopping-criterion for IOM
   NSW    =      1    number of steps for IOM
   NBLOCK =      1;   KBLOCK =      1    inner block; outer block 
   IBRION =     -1    ionic relax: 0-MD 1-quasi-New 2-CG
   NFREE  =      0    steps in history (QN), initial steepest desc. (CG)
   ISIF   =      2    stress and relaxation
   IWAVPR =     10    prediction:  0-non 1-charg 2-wave 3-comb
   ISYM   =      0    0-nonsym 1-usesym 2-fastsym
   LCORR  =      T    Harris-Foulkes like correction to forces

   POTIM  = 0.5000    time-step for ionic-motion
   TEIN   =    0.0    initial temperature
   TEBEG  =    0.0;   TEEND  =   0.0 temperature during run
   SMASS  =  -3.00    Nose mass-parameter (am)
   estimated Nose-frequenzy (Omega)   =  0.10E-29 period in steps =****** mass=  -0.229E-26a.u.
   SCALEE = 1.0000    scale energy and forces
   NPACO  =    256;   APACO  = 16.0  distance and # of slots for P.C.
   PSTRESS=    0.0 pullay stress

  Mass of Ions in am
   POMASS =  12.01 16.00
  Ionic Valenz
   ZVAL   =   4.00  6.00
  Atomic Wigner-Seitz radii
   RWIGS  =  -1.00 -1.00
  virtual crystal weights 
   VCA    =   1.00  1.00
   NELECT =      10.0000    total number of electrons
   NUPDOWN=      -1.0000    fix difference up-down

 DOS related values:
   EMIN   =  10.00;   EMAX   =-10.00  energy-range for DOS
   EFERMI =   0.00
   ISMEAR =     1;   SIGMA  =   0.10  broadening in eV -4-tet -1-fermi 0-gaus

 Electronic relaxation 2 (details)
   IALGO  =     68    algorithm
   LDIAG  =      T    sub-space diagonalisation (order eigenvalues)
   LSUBROT=      F    optimize rotation matrix (better conditioning)
   TURBO    =      0    0=normal 1=particle mesh
   IRESTART =      0    0=no restart 2=restart with 2 vectors
   NREBOOT  =      0    no. of reboots
   NMIN     =      0    reboot dimension
   EREF     =   0.00    reference energy to select bands
   IMIX   =      4    mixing-type and parameters
     AMIX     =   0.40;   BMIX     =  1.00
     AMIX_MAG =   1.60;   BMIX_MAG =  1.00
     AMIN     =   0.10
     WC   =   100.;   INIMIX=   1;  MIXPRE=   1;  MAXMIX= -45

 Intra band minimization:
   WEIMIN = 0.0000     energy-eigenvalue tresh-hold
   EBREAK =  0.78E-09  absolut break condition
   DEPER  =   0.30     relativ break condition  

   TIME   =   0.40     timestep for ELM

  volume/ion in A,a.u.               =     500.00      3374.17
  Fermi-wavevector in a.u.,A,eV,Ry     =   0.352702  0.666511  1.692549  0.124399
  Thomas-Fermi vector in A             =   1.266362
 
 Write flags
   LWAVE  =      T    write WAVECAR
   LCHARG =      T    write CHGCAR
   LVTOT  =      F    write LOCPOT, total local potential
   LVHAR  =      F    write LOCPOT, Hartree potential only
   LELF   =      F    write electronic localiz. function (ELF)
   LORBIT =     11    0 simple, 1 ext, 2 COOP (PROOUT)


 Dipole corrections
   LMONO  =      F    monopole corrections only (constant potential shift)
   LDIPOL =      F    correct potential (dipole corrections)
   IDIPOL =      0    1-x, 2-y, 3-z, 4-all directions 
   EPSILON=  1.0000000 bulk dielectric constant

 Exchange correlation treatment:
   GGA     =    BF    GGA type
   LEXCH   =    17    internal setting for exchange type
   VOSKOWN=      0    Vosko Wilk Nusair interpolation
   LHFCALC =     F    Hartree Fock is set to
   LHFONE  =     F    Hartree Fock one center treatment
   AEXX    =    0.0000 exact exchange contribution

 vdW DFT:
   LUSE_VDW   =     T    switch on vdW DFT
   Zab_VDW    =******    correlation parameter
   PARAM1     =0.1234
   PARAM2     =1.0000
   PARAM3     =0.0000

 Linear response parameters
   LEPSILON=     F    determine dielectric tensor
   LRPA    =     F    only Hartree local field effects (RPA)
   LNABLA  =     F    use nabla operator in PAW spheres
   LVEL    =     F    velocity operator in full k-point grid
   LINTERFAST=   F  fast interpolation
   KINTER  =     0    interpolate to denser k-point grid
   CSHIFT  =0.1000    complex shift for real part using Kramers Kronig
   OMEGAMAX=  -1.0    maximum frequency
   DEG_THRESHOLD= 0.2000000E-02 threshold for treating states as degnerate
   RTIME   =    0.100 relaxation time in fs

 Orbital magnetization related:
   ORBITALMAG=     F  switch on orbital magnetization
   LCHIMAG   =     F  perturbation theory with respect to B field
   DQ        =  0.001000  dq finite difference perturbation B field



--------------------------------------------------------------------------------------------------------


 Static calculation
 charge density and potential will be updated during run
 spin polarized calculation
 RMM-DIIS sequential band-by-band and
  variant of blocked Davidson during initial phase
 perform sub-space diagonalisation
    before iterative eigenvector-optimisation
 modified Broyden-mixing scheme, WC =      100.0
 initial mixing is a Kerker type mixing with AMIX =  0.4000 and BMIX =      1.0000
 Hartree-type preconditioning will be used
 using additional bands           27
 reciprocal scheme for non local part
 use partial core corrections
 calculate Harris-corrections to forces 
   (improved forces if not selfconsistent)
 use gradient corrections 
 use of overlap-Matrix (Vanderbilt PP)
 Methfessel and Paxton  Order N= 1 SIGMA  =   0.10


--------------------------------------------------------------------------------------------------------


  energy-cutoff  :      500.00
  volume of cell :     1000.00
      direct lattice vectors                 reciprocal lattice vectors
    10.000000000  0.000000000  0.000000000     0.100000000  0.000000000  0.000000000
     0.000000000 10.000000000  0.000000000     0.000000000  0.100000000  0.000000000
     0.000000000  0.000000000 10.000000000     0.000000000  0.000000000  0.100000000

  length of vectors
    10.000000000 10.000000000 10.000000000     0.100000000  0.100000000  0.100000000


 
 old parameters found on file WAVECAR:
  energy-cutoff  :      500.00
  volume of cell :     1000.00
      direct lattice vectors                 reciprocal lattice vectors
    10.000000000  0.000000000  0.000000000     0.100000000  0.000000000  0.000000000
     0.000000000 10.000000000  0.000000000     0.000000000  0.100000000  0.000000000
     0.000000000  0.000000000 10.000000000     0.000000000  0.000000000  0.100000000

  length of vectors

 
 k-points in units of 2pi/SCALE and weight: KPOINTS created by Atomic Simulation Env
   0.00000000  0.00000000  0.00000000       1.000
 
 k-points in reciprocal lattice and weights: KPOINTS created by Atomic Simulation Env
   0.00000000  0.00000000  0.00000000       1.000
 
 position of ions in fractional coordinates (direct lattice) 
   0.52000486  0.50000000  0.49916000
   0.51999514  0.50000000  0.38597420
 
 position of ions in cartesian coordinates  (Angst):
   5.20004861  5.00000000  4.99159999
   5.19995139  5.00000000  3.85974201
 


--------------------------------------------------------------------------------------------------------


 use seriel FFT for wavefunctions x direction half grid
 k-point  1 :   0.0000 0.0000 0.0000  plane waves:   12707

 maximum and minimum number of plane-waves per node :     12707    12707

 maximum number of plane-waves:     12707
 maximum index in each direction: 
   IXMAX=   18   IYMAX=   18   IZMAX=   18
   IXMIN=    0   IYMIN=  -18   IZMIN=  -18

 WARNING: aliasing errors must be expected set NGX to  74 to avoid them
 WARNING: aliasing errors must be expected set NGY to  74 to avoid them
 WARNING: aliasing errors must be expected set NGZ to  74 to avoid them
 aliasing errors are usually negligible using standard VASP settings
 and one can safely disregard these warnings

 serial   3D FFT for wavefunctions
 parallel 3D FFT for charge:
    minimum data exchange during FFTs selected (reduces bandwidth)


 total amount of memory used by VASP on root node    53060. kBytes
========================================================================

   base      :      30000. kBytes
   nonl-proj :       2037. kBytes
   fftplans  :       2388. kBytes
   grid      :      18221. kBytes
   one-center:          6. kBytes
   wavefun   :        408. kBytes
 
     INWAV:  cpu time    0.0509: real time    0.0556
 Broyden mixing: mesh for mixing (old mesh)
   NGX = 37   NGY = 37   NGZ = 37
  (NGX  =112   NGY  =112   NGZ  =112)
  gives a total of  50653 points

 charge density for first step will be calculated from the start-wavefunctions


--------------------------------------------------------------------------------------------------------


 Maximum index for augmentation-charges          101 (set IRDMAX)


--------------------------------------------------------------------------------------------------------


 initial charge from wavefunction
 First call to EWALD:  gamma=   0.177
 Maximum number of real-space cells 3x 3x 3
 Maximum number of reciprocal cells 3x 3x 3

 FEWALD executed in parallel
    FEWALD:  cpu time    0.0013: real time    0.0013


----------------------------------------- Iteration    1(   1)  ---------------------------------------


vdW kernel read from vdw_kernel.bindat
  0.0000  0.2424  0.5071  0.7962  1.1119  1.4567  1.8333  2.2446  2.6937  3.1842
  3.7199  4.3049  4.9438  5.6415  6.4036  7.2358  8.1446  9.1372 10.2212 11.4050
 12.6979 14.1099 15.6519 17.3360 19.1751 21.1837 23.3773 25.7729 28.3892 31.2465
 34.3669 37.7748 41.4965 45.5611 50.0000
 
    POTLOK:  cpu time    1.3705: real time    1.3748
    SETDIJ:  cpu time    0.0046: real time    0.0046
     EDDAV:  cpu time    0.0690: real time    0.0693
       DOS:  cpu time    0.0006: real time    0.0006
    CHARGE:  cpu time    0.0227: real time    0.0228
    MIXING:  cpu time    0.0019: real time    0.0019
    --------------------------------------------
      LOOP:  cpu time    1.4707: real time    1.4762

 eigenvalue-minimisations  :   128
 total energy-change (2. order) :-0.1220145E+02  (-0.4395259E+00)
 number of electron      10.0000004 magnetization       0.0419684
 augmentation part        0.6427348 magnetization       0.0015676

 Broyden mixing:
  rms(total) = 0.19562E+00    rms(broyden)= 0.19549E+00
  rms(prec ) = 0.27356E+00
  weight for this iteration     100.00

 Free energy of the ion-electron system (eV)
  ---------------------------------------------------
  alpha Z        PSCENC =         0.43695755
  Ewald energy   TEWEN  =       101.99669917
  -Hartree energ DENC   =      -583.58213073
  -exchange      EXHF   =         0.00000000
  -V(xc)+E(xc)   XCENC  =        41.03221569
  PAW double counting   =       873.81392820     -876.65508085
  entropy T*S    EENTRO =         0.00539622
  eigenvalues    EBANDS =      -156.58528854
  atomic energy  EATOM  =       587.33585529
  Solvation  Ediel_sol  =         0.00000000
  ---------------------------------------------------
  free energy    TOTEN  =       -12.20144799 eV

  energy without entropy =      -12.20684422  energy(sigma->0) =      -12.20324673


--------------------------------------------------------------------------------------------------------




----------------------------------------- Iteration    1(   2)  ---------------------------------------


    POTLOK:  cpu time    1.1142: real time    1.1176
    SETDIJ:  cpu time    0.0042: real time    0.0042
    EDDIAG:  cpu time    0.0232: real time    0.0233
  RMM-DIIS:  cpu time    0.0865: real time    0.0869
    ORTHCH:  cpu time    0.0030: real time    0.0030
       DOS:  cpu time    0.0003: real time    0.0003
    CHARGE:  cpu time    0.0219: real time    0.0220
    MIXING:  cpu time    0.0018: real time    0.0018
    --------------------------------------------
      LOOP:  cpu time    1.2562: real time    1.2610

 eigenvalue-minimisations  :   134
 total energy-change (2. order) : 0.1152985E+00  (-0.2524279E-01)
 number of electron      10.0000005 magnetization       0.0411858
 augmentation part        0.6746871 magnetization       0.0027703

 Broyden mixing:
  rms(total) = 0.10214E+00    rms(broyden)= 0.10206E+00
  rms(prec ) = 0.12823E+00
  weight for this iteration     100.00

 eigenvalues of (default mixing * dielectric matrix)
  average eigenvalue GAMMA=   0.8016
  0.8016

 Free energy of the ion-electron system (eV)
  ---------------------------------------------------
  alpha Z        PSCENC =         0.43695755
  Ewald energy   TEWEN  =       101.99669917
  -Hartree energ DENC   =      -583.30378823
  -exchange      EXHF   =         0.00000000
  -V(xc)+E(xc)   XCENC  =        41.00278967
  PAW double counting   =       881.94463935     -884.72933006
  entropy T*S    EENTRO =         0.00528557
  eigenvalues    EBANDS =      -156.77525781
  atomic energy  EATOM  =       587.33585529
  Solvation  Ediel_sol  =         0.00000000
  ---------------------------------------------------
  free energy    TOTEN  =       -12.08614948 eV

  energy without entropy =      -12.09143505  energy(sigma->0) =      -12.08791133


--------------------------------------------------------------------------------------------------------




----------------------------------------- Iteration    1(   3)  ---------------------------------------


    POTLOK:  cpu time    1.1022: real time    1.1053
    SETDIJ:  cpu time    0.0037: real time    0.0037
    EDDIAG:  cpu time    0.0189: real time    0.0189
  RMM-DIIS:  cpu time    0.0883: real time    0.0887
    ORTHCH:  cpu time    0.0025: real time    0.0025
       DOS:  cpu time    0.0004: real time    0.0004
    CHARGE:  cpu time    0.0218: real time    0.0219
    MIXING:  cpu time    0.0017: real time    0.0017
    --------------------------------------------
      LOOP:  cpu time    1.2403: real time    1.2450

 eigenvalue-minimisations  :   151
 total energy-change (2. order) : 0.2262018E-01  (-0.2954609E-02)
 number of electron      10.0000005 magnetization       0.0434420
 augmentation part        0.6660620 magnetization       0.0011252

 Broyden mixing:
  rms(total) = 0.43656E-01    rms(broyden)= 0.43650E-01
  rms(prec ) = 0.57485E-01
  weight for this iteration     100.00

 eigenvalues of (default mixing * dielectric matrix)
  average eigenvalue GAMMA=   1.3412
  0.7890  1.8933

 Free energy of the ion-electron system (eV)
  ---------------------------------------------------
  alpha Z        PSCENC =         0.43695755
  Ewald energy   TEWEN  =       101.99669917
  -Hartree energ DENC   =      -585.10792128
  -exchange      EXHF   =         0.00000000
  -V(xc)+E(xc)   XCENC  =        41.08995157
  PAW double counting   =       887.07706930     -889.87705225
  entropy T*S    EENTRO =         0.00546850
  eigenvalues    EBANDS =      -155.02055716
  atomic energy  EATOM  =       587.33585529
  Solvation  Ediel_sol  =         0.00000000
  ---------------------------------------------------
  free energy    TOTEN  =       -12.06352930 eV

  energy without entropy =      -12.06899781  energy(sigma->0) =      -12.06535214


--------------------------------------------------------------------------------------------------------




----------------------------------------- Iteration    1(   4)  ---------------------------------------


    POTLOK:  cpu time    1.1125: real time    1.1158
    SETDIJ:  cpu time    0.0042: real time    0.0042
    EDDIAG:  cpu time    0.0219: real time    0.0220
  RMM-DIIS:  cpu time    0.0868: real time    0.0872
    ORTHCH:  cpu time    0.0033: real time    0.0033
       DOS:  cpu time    0.0007: real time    0.0007
    CHARGE:  cpu time    0.0237: real time    0.0238
    MIXING:  cpu time    0.0020: real time    0.0020
    --------------------------------------------
      LOOP:  cpu time    1.2559: real time    1.2638

 eigenvalue-minimisations  :   140
 total energy-change (2. order) : 0.7604378E-02  (-0.2519755E-02)
 number of electron      10.0000005 magnetization       0.0379629
 augmentation part        0.6646011 magnetization       0.0113215

 Broyden mixing:
  rms(total) = 0.14456E-01    rms(broyden)= 0.14446E-01
  rms(prec ) = 0.18847E-01
  weight for this iteration     100.00

 eigenvalues of (default mixing * dielectric matrix)
  average eigenvalue GAMMA=   1.0355
  1.9235  0.7763  0.4066

 Free energy of the ion-electron system (eV)
  ---------------------------------------------------
  alpha Z        PSCENC =         0.43695755
  Ewald energy   TEWEN  =       101.99669917
  -Hartree energ DENC   =      -586.32940503
  -exchange      EXHF   =         0.00000000
  -V(xc)+E(xc)   XCENC  =        41.14314752
  PAW double counting   =       892.84574510     -895.64503711
  entropy T*S    EENTRO =         0.00469155
  eigenvalues    EBANDS =      -153.84457896
  atomic energy  EATOM  =       587.33585529
  Solvation  Ediel_sol  =         0.00000000
  ---------------------------------------------------
  free energy    TOTEN  =       -12.05592492 eV

  energy without entropy =      -12.06061647  energy(sigma->0) =      -12.05748877


--------------------------------------------------------------------------------------------------------




----------------------------------------- Iteration    1(   5)  ---------------------------------------


    POTLOK:  cpu time    1.1093: real time    1.1124
    SETDIJ:  cpu time    0.0037: real time    0.0037
    EDDIAG:  cpu time    0.0187: real time    0.0188
  RMM-DIIS:  cpu time    0.0793: real time    0.0797
    ORTHCH:  cpu time    0.0023: real time    0.0023
       DOS:  cpu time    0.0003: real time    0.0003
    CHARGE:  cpu time    0.0218: real time    0.0219
    MIXING:  cpu time    0.0017: real time    0.0018
    --------------------------------------------
      LOOP:  cpu time    1.2382: real time    1.2429

 eigenvalue-minimisations  :   139
 total energy-change (2. order) : 0.2191267E-03  (-0.6739226E-04)
 number of electron      10.0000005 magnetization       0.0417197
 augmentation part        0.6654560 magnetization      -0.0194885

 Broyden mixing:
  rms(total) = 0.17927E-01    rms(broyden)= 0.17920E-01
  rms(prec ) = 0.19956E-01
  weight for this iteration     100.00

 eigenvalues of (default mixing * dielectric matrix)
  average eigenvalue GAMMA=   1.1147
  1.9132  1.4396  0.8130  0.2930

 Free energy of the ion-electron system (eV)
  ---------------------------------------------------
  alpha Z        PSCENC =         0.43695755
  Ewald energy   TEWEN  =       101.99669917
  -Hartree energ DENC   =      -586.22923248
  -exchange      EXHF   =         0.00000000
  -V(xc)+E(xc)   XCENC  =        41.13645470
  PAW double counting   =       893.11123305     -895.90902632
  entropy T*S    EENTRO =         0.00623322
  eigenvalues    EBANDS =      -153.94087998
  atomic energy  EATOM  =       587.33585529
  Solvation  Ediel_sol  =         0.00000000
  ---------------------------------------------------
  free energy    TOTEN  =       -12.05570580 eV

  energy without entropy =      -12.06193901  energy(sigma->0) =      -12.05778354


--------------------------------------------------------------------------------------------------------




----------------------------------------- Iteration    1(   6)  ---------------------------------------


    POTLOK:  cpu time    1.0989: real time    1.1020
    SETDIJ:  cpu time    0.0037: real time    0.0037
    EDDIAG:  cpu time    0.0185: real time    0.0186
  RMM-DIIS:  cpu time    0.0694: real time    0.0697
    ORTHCH:  cpu time    0.0024: real time    0.0025
       DOS:  cpu time    0.0004: real time    0.0004
    CHARGE:  cpu time    0.0218: real time    0.0219
    MIXING:  cpu time    0.0020: real time    0.0020
    --------------------------------------------
      LOOP:  cpu time    1.2180: real time    1.2226

 eigenvalue-minimisations  :   134
 total energy-change (2. order) :-0.6383965E-03  (-0.4334736E-04)
 number of electron      10.0000005 magnetization       0.0409827
 augmentation part        0.6666869 magnetization       0.0049426

 Broyden mixing:
  rms(total) = 0.62142E-02    rms(broyden)= 0.62050E-02
  rms(prec ) = 0.91672E-02
  weight for this iteration     100.00

 eigenvalues of (default mixing * dielectric matrix)
  average eigenvalue GAMMA=   1.1914
  2.0032  2.0032  0.8323  0.8323  0.2858

 Free energy of the ion-electron system (eV)
  ---------------------------------------------------
  alpha Z        PSCENC =         0.43695755
  Ewald energy   TEWEN  =       101.99669917
  -Hartree energ DENC   =      -586.07678228
  -exchange      EXHF   =         0.00000000
  -V(xc)+E(xc)   XCENC  =        41.12683731
  PAW double counting   =       893.39044022     -896.18664048
  entropy T*S    EENTRO =         0.00517185
  eigenvalues    EBANDS =      -154.08488283
  atomic energy  EATOM  =       587.33585529
  Solvation  Ediel_sol  =         0.00000000
  ---------------------------------------------------
  free energy    TOTEN  =       -12.05634419 eV

  energy without entropy =      -12.06151604  energy(sigma->0) =      -12.05806814


--------------------------------------------------------------------------------------------------------




----------------------------------------- Iteration    1(   7)  ---------------------------------------


    POTLOK:  cpu time    1.0864: real time    1.0894
    SETDIJ:  cpu time    0.0037: real time    0.0037
    EDDIAG:  cpu time    0.0181: real time    0.0182
  RMM-DIIS:  cpu time    0.0740: real time    0.0744
    ORTHCH:  cpu time    0.0024: real time    0.0024
       DOS:  cpu time    0.0003: real time    0.0003
    CHARGE:  cpu time    0.0222: real time    0.0223
    MIXING:  cpu time    0.0020: real time    0.0020
    --------------------------------------------
      LOOP:  cpu time    1.2101: real time    1.2147

 eigenvalue-minimisations  :   135
 total energy-change (2. order) :-0.4080400E-03  (-0.2164352E-04)
 number of electron      10.0000005 magnetization       0.0412056
 augmentation part        0.6660105 magnetization       0.0005283

 Broyden mixing:
  rms(total) = 0.19404E-02    rms(broyden)= 0.19389E-02
  rms(prec ) = 0.46876E-02
  weight for this iteration     100.00

 eigenvalues of (default mixing * dielectric matrix)
  average eigenvalue GAMMA=   1.1756
  2.0493  2.0493  1.1282  0.8337  0.7082  0.2850

 Free energy of the ion-electron system (eV)
  ---------------------------------------------------
  alpha Z        PSCENC =         0.43695755
  Ewald energy   TEWEN  =       101.99669917
  -Hartree energ DENC   =      -586.15000039
  -exchange      EXHF   =         0.00000000
  -V(xc)+E(xc)   XCENC  =        41.13030080
  PAW double counting   =       893.34641038     -896.14503596
  entropy T*S    EENTRO =         0.00539221
  eigenvalues    EBANDS =      -154.01333129
  atomic energy  EATOM  =       587.33585529
  Solvation  Ediel_sol  =         0.00000000
  ---------------------------------------------------
  free energy    TOTEN  =       -12.05675223 eV

  energy without entropy =      -12.06214444  energy(sigma->0) =      -12.05854964


--------------------------------------------------------------------------------------------------------




----------------------------------------- Iteration    1(   8)  ---------------------------------------


    POTLOK:  cpu time    1.0866: real time    1.0897
    SETDIJ:  cpu time    0.0038: real time    0.0039
    EDDIAG:  cpu time    0.0179: real time    0.0180
  RMM-DIIS:  cpu time    0.0862: real time    0.0865
    ORTHCH:  cpu time    0.0025: real time    0.0025
       DOS:  cpu time    0.0003: real time    0.0003
    CHARGE:  cpu time    0.0217: real time    0.0218
    MIXING:  cpu time    0.0021: real time    0.0021
    --------------------------------------------
      LOOP:  cpu time    1.2221: real time    1.2272

 eigenvalue-minimisations  :   138
 total energy-change (2. order) :-0.2366263E-03  (-0.5505202E-05)
 number of electron      10.0000005 magnetization       0.0411913
 augmentation part        0.6659267 magnetization       0.0020511

 Broyden mixing:
  rms(total) = 0.16142E-02    rms(broyden)= 0.16139E-02
  rms(prec ) = 0.35887E-02
  weight for this iteration     100.00

 eigenvalues of (default mixing * dielectric matrix)
  average eigenvalue GAMMA=   1.2632
  2.3836  1.9909  1.7164  0.2851  0.8961  0.8961  0.6743

 Free energy of the ion-electron system (eV)
  ---------------------------------------------------
  alpha Z        PSCENC =         0.43695755
  Ewald energy   TEWEN  =       101.99669917
  -Hartree energ DENC   =      -586.20676781
  -exchange      EXHF   =         0.00000000
  -V(xc)+E(xc)   XCENC  =        41.13320483
  PAW double counting   =       893.08413878     -895.88380692
  entropy T*S    EENTRO =         0.00532007
  eigenvalues    EBANDS =      -153.95858983
  atomic energy  EATOM  =       587.33585529
  Solvation  Ediel_sol  =         0.00000000
  ---------------------------------------------------
  free energy    TOTEN  =       -12.05698886 eV

  energy without entropy =      -12.06230893  energy(sigma->0) =      -12.05876222


--------------------------------------------------------------------------------------------------------




----------------------------------------- Iteration    1(   9)  ---------------------------------------


    POTLOK:  cpu time    1.1031: real time    1.1063
    SETDIJ:  cpu time    0.0037: real time    0.0037
    EDDIAG:  cpu time    0.0184: real time    0.0185
  RMM-DIIS:  cpu time    0.0857: real time    0.0860
    ORTHCH:  cpu time    0.0025: real time    0.0025
       DOS:  cpu time    0.0003: real time    0.0003
    CHARGE:  cpu time    0.0217: real time    0.0218
    MIXING:  cpu time    0.0024: real time    0.0024
    --------------------------------------------
      LOOP:  cpu time    1.2388: real time    1.2435

 eigenvalue-minimisations  :   132
 total energy-change (2. order) :-0.1079025E-03  (-0.7021113E-05)
 number of electron      10.0000005 magnetization       0.0410955
 augmentation part        0.6662147 magnetization       0.0019479

 Broyden mixing:
  rms(total) = 0.12024E-02    rms(broyden)= 0.12015E-02
  rms(prec ) = 0.21597E-02
  weight for this iteration     100.00

 eigenvalues of (default mixing * dielectric matrix)
  average eigenvalue GAMMA=   1.3311
  3.1480  2.0710  1.6062  1.2863  0.2851  0.8041  0.8041  0.6440

 Free energy of the ion-electron system (eV)
  ---------------------------------------------------
  alpha Z        PSCENC =         0.43695755
  Ewald energy   TEWEN  =       101.99669917
  -Hartree energ DENC   =      -586.23118072
  -exchange      EXHF   =         0.00000000
  -V(xc)+E(xc)   XCENC  =        41.13425597
  PAW double counting   =       892.66714605     -895.46728897
  entropy T*S    EENTRO =         0.00531979
  eigenvalues    EBANDS =      -153.93486090
  atomic energy  EATOM  =       587.33585529
  Solvation  Ediel_sol  =         0.00000000
  ---------------------------------------------------
  free energy    TOTEN  =       -12.05709676 eV

  energy without entropy =      -12.06241656  energy(sigma->0) =      -12.05887003


--------------------------------------------------------------------------------------------------------




----------------------------------------- Iteration    1(  10)  ---------------------------------------


    POTLOK:  cpu time    1.0896: real time    1.0927
    SETDIJ:  cpu time    0.0038: real time    0.0038
    EDDIAG:  cpu time    0.0181: real time    0.0182
  RMM-DIIS:  cpu time    0.0722: real time    0.0725
    ORTHCH:  cpu time    0.0024: real time    0.0024
       DOS:  cpu time    0.0003: real time    0.0003
    CHARGE:  cpu time    0.0218: real time    0.0218
    MIXING:  cpu time    0.0024: real time    0.0024
    --------------------------------------------
      LOOP:  cpu time    1.2116: real time    1.2163

 eigenvalue-minimisations  :   132
 total energy-change (2. order) : 0.4517426E-04  (-0.2269812E-05)
 number of electron      10.0000005 magnetization       0.0411302
 augmentation part        0.6661519 magnetization       0.0013313

 Broyden mixing:
  rms(total) = 0.68694E-03    rms(broyden)= 0.68684E-03
  rms(prec ) = 0.13176E-02
  weight for this iteration     100.00

 eigenvalues of (default mixing * dielectric matrix)
  average eigenvalue GAMMA=   1.4533
  3.6373  2.3884  1.8195  1.8195  0.8859  0.8859  0.2851  0.7309  0.6277

 Free energy of the ion-electron system (eV)
  ---------------------------------------------------
  alpha Z        PSCENC =         0.43695755
  Ewald energy   TEWEN  =       101.99669917
  -Hartree energ DENC   =      -586.23405129
  -exchange      EXHF   =         0.00000000
  -V(xc)+E(xc)   XCENC  =        41.13424968
  PAW double counting   =       892.61908594     -895.41923723
  entropy T*S    EENTRO =         0.00535075
  eigenvalues    EBANDS =      -153.93196146
  atomic energy  EATOM  =       587.33585529
  Solvation  Ediel_sol  =         0.00000000
  ---------------------------------------------------
  free energy    TOTEN  =       -12.05705159 eV

  energy without entropy =      -12.06240234  energy(sigma->0) =      -12.05883517


--------------------------------------------------------------------------------------------------------




----------------------------------------- Iteration    1(  11)  ---------------------------------------


    POTLOK:  cpu time    1.0879: real time    1.0911
    SETDIJ:  cpu time    0.0037: real time    0.0037
    EDDIAG:  cpu time    0.0181: real time    0.0181
  RMM-DIIS:  cpu time    0.0717: real time    0.0720
    ORTHCH:  cpu time    0.0023: real time    0.0023
       DOS:  cpu time    0.0003: real time    0.0003
    CHARGE:  cpu time    0.0217: real time    0.0218
    MIXING:  cpu time    0.0026: real time    0.0026
    --------------------------------------------
      LOOP:  cpu time    1.2091: real time    1.2138

 eigenvalue-minimisations  :   131
 total energy-change (2. order) :-0.1524121E-04  (-0.1654268E-05)
 number of electron      10.0000005 magnetization       0.0411515
 augmentation part        0.6660595 magnetization       0.0015280

 Broyden mixing:
  rms(total) = 0.41682E-03    rms(broyden)= 0.41653E-03
  rms(prec ) = 0.78049E-03
  weight for this iteration     100.00

 eigenvalues of (default mixing * dielectric matrix)
  average eigenvalue GAMMA=   1.5820
  5.0395  2.6708  1.8963  1.7881  0.2851  1.0762  0.8638  0.8638  0.7129  0.6235

 Free energy of the ion-electron system (eV)
  ---------------------------------------------------
  alpha Z        PSCENC =         0.43695755
  Ewald energy   TEWEN  =       101.99669917
  -Hartree energ DENC   =      -586.24513897
  -exchange      EXHF   =         0.00000000
  -V(xc)+E(xc)   XCENC  =        41.13461639
  PAW double counting   =       892.66734271     -895.46732502
  entropy T*S    EENTRO =         0.00534245
  eigenvalues    EBANDS =      -153.92141640
  atomic energy  EATOM  =       587.33585529
  Solvation  Ediel_sol  =         0.00000000
  ---------------------------------------------------
  free energy    TOTEN  =       -12.05706683 eV

  energy without entropy =      -12.06240928  energy(sigma->0) =      -12.05884765


--------------------------------------------------------------------------------------------------------




----------------------------------------- Iteration    1(  12)  ---------------------------------------


    POTLOK:  cpu time    1.1049: real time    1.1081
    SETDIJ:  cpu time    0.0042: real time    0.0042
    EDDIAG:  cpu time    0.0219: real time    0.0220
  RMM-DIIS:  cpu time    0.0671: real time    0.0674
    ORTHCH:  cpu time    0.0032: real time    0.0032
       DOS:  cpu time    0.0007: real time    0.0007
    CHARGE:  cpu time    0.0237: real time    0.0238
    MIXING:  cpu time    0.0033: real time    0.0033
    --------------------------------------------
      LOOP:  cpu time    1.2300: real time    1.2350

 eigenvalue-minimisations  :   129
 total energy-change (2. order) :-0.9616637E-05  (-0.3966222E-06)
 number of electron      10.0000005 magnetization       0.0411321
 augmentation part        0.6660878 magnetization       0.0016428

 Broyden mixing:
  rms(total) = 0.25922E-03    rms(broyden)= 0.25921E-03
  rms(prec ) = 0.47201E-03
  weight for this iteration     100.00

 eigenvalues of (default mixing * dielectric matrix)
  average eigenvalue GAMMA=   1.6519
  6.1199  2.7328  2.1068  1.5734  1.5734  0.2851  0.8804  0.8804  0.7242  0.6641
  0.6303

 Free energy of the ion-electron system (eV)
  ---------------------------------------------------
  alpha Z        PSCENC =         0.43695755
  Ewald energy   TEWEN  =       101.99669917
  -Hartree energ DENC   =      -586.24776854
  -exchange      EXHF   =         0.00000000
  -V(xc)+E(xc)   XCENC  =        41.13471288
  PAW double counting   =       892.70356674     -895.50344171
  entropy T*S    EENTRO =         0.00533623
  eigenvalues    EBANDS =      -153.91899406
  atomic energy  EATOM  =       587.33585529
  Solvation  Ediel_sol  =         0.00000000
  ---------------------------------------------------
  free energy    TOTEN  =       -12.05707645 eV

  energy without entropy =      -12.06241268  energy(sigma->0) =      -12.05885519


--------------------------------------------------------------------------------------------------------




----------------------------------------- Iteration    1(  13)  ---------------------------------------


    POTLOK:  cpu time    1.1195: real time    1.1227
    SETDIJ:  cpu time    0.0037: real time    0.0038
    EDDIAG:  cpu time    0.0184: real time    0.0184
  RMM-DIIS:  cpu time    0.0748: real time    0.0752
    ORTHCH:  cpu time    0.0025: real time    0.0025
       DOS:  cpu time    0.0003: real time    0.0003
    CHARGE:  cpu time    0.0217: real time    0.0217
    MIXING:  cpu time    0.0032: real time    0.0032
    --------------------------------------------
      LOOP:  cpu time    1.2451: real time    1.2498

 eigenvalue-minimisations  :   135
 total energy-change (2. order) :-0.1707451E-04  (-0.2051439E-06)
 number of electron      10.0000005 magnetization       0.0411231
 augmentation part        0.6661042 magnetization       0.0015418

 Broyden mixing:
  rms(total) = 0.13940E-03    rms(broyden)= 0.13936E-03
  rms(prec ) = 0.25102E-03
  weight for this iteration     100.00

 eigenvalues of (default mixing * dielectric matrix)
  average eigenvalue GAMMA=   1.7994
  7.0792  3.2493  2.5170  1.9247  1.7399  0.2851  1.0400  0.8937  0.8937  0.7195
  0.6252  0.6252

 Free energy of the ion-electron system (eV)
  ---------------------------------------------------
  alpha Z        PSCENC =         0.43695755
  Ewald energy   TEWEN  =       101.99669917
  -Hartree energ DENC   =      -586.24126427
  -exchange      EXHF   =         0.00000000
  -V(xc)+E(xc)   XCENC  =        41.13445558
  PAW double counting   =       892.73656135     -895.53645091
  entropy T*S    EENTRO =         0.00534040
  eigenvalues    EBANDS =      -153.92524769
  atomic energy  EATOM  =       587.33585529
  Solvation  Ediel_sol  =         0.00000000
  ---------------------------------------------------
  free energy    TOTEN  =       -12.05709352 eV

  energy without entropy =      -12.06243392  energy(sigma->0) =      -12.05887365


--------------------------------------------------------------------------------------------------------




----------------------------------------- Iteration    1(  14)  ---------------------------------------


    POTLOK:  cpu time    1.0897: real time    1.0927
    SETDIJ:  cpu time    0.0037: real time    0.0037
    EDDIAG:  cpu time    0.0179: real time    0.0180
  RMM-DIIS:  cpu time    0.0655: real time    0.0659
    ORTHCH:  cpu time    0.0020: real time    0.0020
       DOS:  cpu time    0.0003: real time    0.0003
    CHARGE:  cpu time    0.0215: real time    0.0216
    MIXING:  cpu time    0.0032: real time    0.0032
    --------------------------------------------
      LOOP:  cpu time    1.2048: real time    1.2096

 eigenvalue-minimisations  :   128
 total energy-change (2. order) :-0.1563938E-04  (-0.1573999E-06)
 number of electron      10.0000005 magnetization       0.0411357
 augmentation part        0.6661065 magnetization       0.0015072

 Broyden mixing:
  rms(total) = 0.10825E-03    rms(broyden)= 0.10823E-03
  rms(prec ) = 0.14286E-03
  weight for this iteration     100.00

 eigenvalues of (default mixing * dielectric matrix)
  average eigenvalue GAMMA=   1.8307
  7.5868  3.8561  2.5731  1.9974  1.4843  1.4843  0.2851  0.8875  0.8875  0.8171
  0.7122  0.6079  0.6194

 Free energy of the ion-electron system (eV)
  ---------------------------------------------------
  alpha Z        PSCENC =         0.43695755
  Ewald energy   TEWEN  =       101.99669917
  -Hartree energ DENC   =      -586.23429339
  -exchange      EXHF   =         0.00000000
  -V(xc)+E(xc)   XCENC  =        41.13414780
  PAW double counting   =       892.75608982     -895.55600116
  entropy T*S    EENTRO =         0.00534273
  eigenvalues    EBANDS =      -153.93190697
  atomic energy  EATOM  =       587.33585529
  Solvation  Ediel_sol  =         0.00000000
  ---------------------------------------------------
  free energy    TOTEN  =       -12.05710916 eV

  energy without entropy =      -12.06245189  energy(sigma->0) =      -12.05889007


--------------------------------------------------------------------------------------------------------




----------------------------------------- Iteration    1(  15)  ---------------------------------------


    POTLOK:  cpu time    1.0960: real time    1.0991
    SETDIJ:  cpu time    0.0043: real time    0.0044
    EDDIAG:  cpu time    0.0180: real time    0.0181
  RMM-DIIS:  cpu time    0.0882: real time    0.0886
    ORTHCH:  cpu time    0.0023: real time    0.0023
       DOS:  cpu time    0.0003: real time    0.0003
    CHARGE:  cpu time    0.0215: real time    0.0216
    MIXING:  cpu time    0.0034: real time    0.0034
    --------------------------------------------
      LOOP:  cpu time    1.2350: real time    1.2396

 eigenvalue-minimisations  :   144
 total energy-change (2. order) :-0.1466551E-06  (-0.2407372E-07)
 number of electron      10.0000005 magnetization       0.0411378
 augmentation part        0.6661059 magnetization       0.0015826

 Broyden mixing:
  rms(total) = 0.49172E-04    rms(broyden)= 0.49160E-04
  rms(prec ) = 0.69704E-04
  weight for this iteration     100.00

 eigenvalues of (default mixing * dielectric matrix)
  average eigenvalue GAMMA=   1.9013
  7.9801  4.4093  2.5841  2.2475  1.8347  1.8347  0.2851  0.9584  0.9029  0.9029
  0.7621  0.6977  0.6268  0.5915

 Free energy of the ion-electron system (eV)
  ---------------------------------------------------
  alpha Z        PSCENC =         0.43695755
  Ewald energy   TEWEN  =       101.99669917
  -Hartree energ DENC   =      -586.23462815
  -exchange      EXHF   =         0.00000000
  -V(xc)+E(xc)   XCENC  =        41.13414046
  PAW double counting   =       892.73766201     -895.53756537
  entropy T*S    EENTRO =         0.00533925
  eigenvalues    EBANDS =      -153.93156952
  atomic energy  EATOM  =       587.33585529
  Solvation  Ediel_sol  =         0.00000000
  ---------------------------------------------------
  free energy    TOTEN  =       -12.05710931 eV

  energy without entropy =      -12.06244855  energy(sigma->0) =      -12.05888906


--------------------------------------------------------------------------------------------------------




----------------------------------------- Iteration    1(  16)  ---------------------------------------


    POTLOK:  cpu time    1.0877: real time    1.0907
    SETDIJ:  cpu time    0.0037: real time    0.0037
    EDDIAG:  cpu time    0.0178: real time    0.0179
  RMM-DIIS:  cpu time    0.0740: real time    0.0743
    ORTHCH:  cpu time    0.0022: real time    0.0022
       DOS:  cpu time    0.0003: real time    0.0003
    CHARGE:  cpu time    0.0216: real time    0.0217
    MIXING:  cpu time    0.0036: real time    0.0036
    --------------------------------------------
      LOOP:  cpu time    1.2118: real time    1.2163

 eigenvalue-minimisations  :   130
 total energy-change (2. order) : 0.1562314E-06  (-0.1684308E-07)
 number of electron      10.0000005 magnetization       0.0411348
 augmentation part        0.6661045 magnetization       0.0015822

 Broyden mixing:
  rms(total) = 0.29868E-04    rms(broyden)= 0.29865E-04
  rms(prec ) = 0.38016E-04
  weight for this iteration     100.00

 eigenvalues of (default mixing * dielectric matrix)
  average eigenvalue GAMMA=   1.9224
  8.3161  4.9612  2.8289  2.5469  1.9129  1.6970  0.2851  1.0822  0.8895  0.8895
  0.8419  0.7178  0.6362  0.6362  0.5940

 Free energy of the ion-electron system (eV)
  ---------------------------------------------------
  alpha Z        PSCENC =         0.43695755
  Ewald energy   TEWEN  =       101.99669917
  -Hartree energ DENC   =      -586.23581578
  -exchange      EXHF   =         0.00000000
  -V(xc)+E(xc)   XCENC  =        41.13420076
  PAW double counting   =       892.71850145     -895.51841946
  entropy T*S    EENTRO =         0.00533916
  eigenvalues    EBANDS =      -153.93042730
  atomic energy  EATOM  =       587.33585529
  Solvation  Ediel_sol  =         0.00000000
  ---------------------------------------------------
  free energy    TOTEN  =       -12.05710915 eV

  energy without entropy =      -12.06244831  energy(sigma->0) =      -12.05888887


--------------------------------------------------------------------------------------------------------




----------------------------------------- Iteration    1(  17)  ---------------------------------------


    POTLOK:  cpu time    1.0899: real time    1.0930
    SETDIJ:  cpu time    0.0038: real time    0.0038
    EDDIAG:  cpu time    0.0177: real time    0.0178
  RMM-DIIS:  cpu time    0.1089: real time    0.1092
    ORTHCH:  cpu time    0.0022: real time    0.0022
       DOS:  cpu time    0.0003: real time    0.0003
    CHARGE:  cpu time    0.0215: real time    0.0216
    MIXING:  cpu time    0.0037: real time    0.0038
    --------------------------------------------
      LOOP:  cpu time    1.2491: real time    1.2537

 eigenvalue-minimisations  :   144
 total energy-change (2. order) : 0.8634448E-06  (-0.1443720E-08)
 number of electron      10.0000005 magnetization       0.0411329
 augmentation part        0.6661036 magnetization       0.0015650

 Broyden mixing:
  rms(total) = 0.17134E-04    rms(broyden)= 0.17131E-04
  rms(prec ) = 0.22196E-04
  weight for this iteration     100.00

 eigenvalues of (default mixing * dielectric matrix)
  average eigenvalue GAMMA=   1.9183
  8.4439  5.1027  2.9794  2.5002  1.7568  1.7568  1.7404  0.2851  0.9649  0.8940
  0.8940  0.8116  0.7122  0.6292  0.6292  0.5928

 Free energy of the ion-electron system (eV)
  ---------------------------------------------------
  alpha Z        PSCENC =         0.43695755
  Ewald energy   TEWEN  =       101.99669917
  -Hartree energ DENC   =      -586.23594532
  -exchange      EXHF   =         0.00000000
  -V(xc)+E(xc)   XCENC  =        41.13421738
  PAW double counting   =       892.71827512     -895.51820066
  entropy T*S    EENTRO =         0.00533986
  eigenvalues    EBANDS =      -153.93030668
  atomic energy  EATOM  =       587.33585529
  Solvation  Ediel_sol  =         0.00000000
  ---------------------------------------------------
  free energy    TOTEN  =       -12.05710829 eV

  energy without entropy =      -12.06244815  energy(sigma->0) =      -12.05888824


--------------------------------------------------------------------------------------------------------




----------------------------------------- Iteration    1(  18)  ---------------------------------------


    POTLOK:  cpu time    1.0967: real time    1.0998
    SETDIJ:  cpu time    0.0049: real time    0.0050
    EDDIAG:  cpu time    0.0213: real time    0.0214
  RMM-DIIS:  cpu time    0.0920: real time    0.0923
    ORTHCH:  cpu time    0.0023: real time    0.0024
       DOS:  cpu time    0.0004: real time    0.0004
    CHARGE:  cpu time    0.0221: real time    0.0221
    MIXING:  cpu time    0.0041: real time    0.0041
    --------------------------------------------
      LOOP:  cpu time    1.2447: real time    1.2493

 eigenvalue-minimisations  :   123
 total energy-change (2. order) : 0.2185843E-05  (-0.1655895E-08)
 number of electron      10.0000005 magnetization       0.0411335
 augmentation part        0.6661030 magnetization       0.0015590

 Broyden mixing:
  rms(total) = 0.92366E-05    rms(broyden)= 0.92341E-05
  rms(prec ) = 0.11796E-04
  weight for this iteration     100.00

 eigenvalues of (default mixing * dielectric matrix)
  average eigenvalue GAMMA=   1.9655
  8.6035  5.3251  3.4707  2.5127  2.5127  1.8840  1.7158  0.2851  1.0202  1.0202
  0.8894  0.8894  0.7567  0.6946  0.6222  0.6222  0.5880

 Free energy of the ion-electron system (eV)
  ---------------------------------------------------
  alpha Z        PSCENC =         0.43695755
  Ewald energy   TEWEN  =       101.99669917
  -Hartree energ DENC   =      -586.23581463
  -exchange      EXHF   =         0.00000000
  -V(xc)+E(xc)   XCENC  =        41.13421880
  PAW double counting   =       892.72379738     -895.52372217
  entropy T*S    EENTRO =         0.00534017
  eigenvalues    EBANDS =      -153.93043766
  atomic energy  EATOM  =       587.33585529
  Solvation  Ediel_sol  =         0.00000000
  ---------------------------------------------------
  free energy    TOTEN  =       -12.05710610 eV

  energy without entropy =      -12.06244627  energy(sigma->0) =      -12.05888616


--------------------------------------------------------------------------------------------------------




----------------------------------------- Iteration    1(  19)  ---------------------------------------


    POTLOK:  cpu time    1.0926: real time    1.0956
    SETDIJ:  cpu time    0.0038: real time    0.0038
    EDDIAG:  cpu time    0.0180: real time    0.0181
  RMM-DIIS:  cpu time    0.0980: real time    0.0983
    ORTHCH:  cpu time    0.0025: real time    0.0025
       DOS:  cpu time    0.0003: real time    0.0003
    CHARGE:  cpu time    0.0215: real time    0.0216
    MIXING:  cpu time    0.0040: real time    0.0040
    --------------------------------------------
      LOOP:  cpu time    1.2417: real time    1.2462

 eigenvalue-minimisations  :   124
 total energy-change (2. order) : 0.9746432E-06  (-0.3960206E-09)
 number of electron      10.0000005 magnetization       0.0411333
 augmentation part        0.6661033 magnetization       0.0015632

 Broyden mixing:
  rms(total) = 0.36775E-05    rms(broyden)= 0.36769E-05
  rms(prec ) = 0.53515E-05
  weight for this iteration     100.00

 eigenvalues of (default mixing * dielectric matrix)
  average eigenvalue GAMMA=   1.9237
  8.6405  5.3837  3.6976  2.5642  2.5642  1.8062  1.7476  0.2851  1.1318  1.0064
  0.8845  0.8845  0.8004  0.7380  0.6693  0.6240  0.6130  0.5863

 Free energy of the ion-electron system (eV)
  ---------------------------------------------------
  alpha Z        PSCENC =         0.43695755
  Ewald energy   TEWEN  =       101.99669917
  -Hartree energ DENC   =      -586.23582510
  -exchange      EXHF   =         0.00000000
  -V(xc)+E(xc)   XCENC  =        41.13421619
  PAW double counting   =       892.72608350     -895.52600239
  entropy T*S    EENTRO =         0.00533997
  eigenvalues    EBANDS =      -153.93042932
  atomic energy  EATOM  =       587.33585529
  Solvation  Ediel_sol  =         0.00000000
  ---------------------------------------------------
  free energy    TOTEN  =       -12.05710513 eV

  energy without entropy =      -12.06244510  energy(sigma->0) =      -12.05888512


--------------------------------------------------------------------------------------------------------




----------------------------------------- Iteration    1(  20)  ---------------------------------------


    POTLOK:  cpu time    1.0891: real time    1.0921
    SETDIJ:  cpu time    0.0039: real time    0.0039
    EDDIAG:  cpu time    0.0178: real time    0.0179
  RMM-DIIS:  cpu time    0.1066: real time    0.1069
    ORTHCH:  cpu time    0.0023: real time    0.0023
       DOS:  cpu time    0.0003: real time    0.0003
    CHARGE:  cpu time    0.0217: real time    0.0217
    MIXING:  cpu time    0.0043: real time    0.0043
    --------------------------------------------
      LOOP:  cpu time    1.2468: real time    1.2515

 eigenvalue-minimisations  :   132
 total energy-change (2. order) : 0.4687130E-06  (-0.6562748E-10)
 number of electron      10.0000005 magnetization       0.0411338
 augmentation part        0.6661034 magnetization       0.0015605

 Broyden mixing:
  rms(total) = 0.26166E-05    rms(broyden)= 0.26161E-05
  rms(prec ) = 0.34418E-05
  weight for this iteration     100.00

 eigenvalues of (default mixing * dielectric matrix)
  average eigenvalue GAMMA=   1.9385
  8.6664  5.4192  3.9342  2.6177  2.6177  1.9069  1.9069  1.6777  0.2851  1.0249
  1.0249  0.8987  0.8987  0.7778  0.7086  0.6342  0.6342  0.6097  0.5874

 Free energy of the ion-electron system (eV)
  ---------------------------------------------------
  alpha Z        PSCENC =         0.43695755
  Ewald energy   TEWEN  =       101.99669917
  -Hartree energ DENC   =      -586.23589659
  -exchange      EXHF   =         0.00000000
  -V(xc)+E(xc)   XCENC  =        41.13421944
  PAW double counting   =       892.72639971     -895.52631771
  entropy T*S    EENTRO =         0.00534012
  eigenvalues    EBANDS =      -153.93036164
  atomic energy  EATOM  =       587.33585529
  Solvation  Ediel_sol  =         0.00000000
  ---------------------------------------------------
  free energy    TOTEN  =       -12.05710466 eV

  energy without entropy =      -12.06244478  energy(sigma->0) =      -12.05888470


--------------------------------------------------------------------------------------------------------




----------------------------------------- Iteration    1(  21)  ---------------------------------------


    POTLOK:  cpu time    1.0917: real time    1.0947
    SETDIJ:  cpu time    0.0037: real time    0.0037
    EDDIAG:  cpu time    0.0181: real time    0.0181
  RMM-DIIS:  cpu time    0.1037: real time    0.1040
    ORTHCH:  cpu time    0.0025: real time    0.0025
       DOS:  cpu time    0.0003: real time    0.0003
    CHARGE:  cpu time    0.0218: real time    0.0218
    MIXING:  cpu time    0.0045: real time    0.0045
    --------------------------------------------
      LOOP:  cpu time    1.2473: real time    1.2518

 eigenvalue-minimisations  :   116
 total energy-change (2. order) : 0.4106420E-06  (-0.5135795E-10)
 number of electron      10.0000005 magnetization       0.0411339
 augmentation part        0.6661036 magnetization       0.0015628

 Broyden mixing:
  rms(total) = 0.10389E-05    rms(broyden)= 0.10381E-05
  rms(prec ) = 0.16330E-05
  weight for this iteration     100.00

 eigenvalues of (default mixing * dielectric matrix)
  average eigenvalue GAMMA=   1.9697
  8.6928  5.5077  4.3245  3.0883  2.7550  2.4240  1.8121  1.7502  0.2851  1.1359
  1.0252  0.8941  0.8941  0.8863  0.7560  0.6949  0.5892  0.6320  0.6320  0.6139

 Free energy of the ion-electron system (eV)
  ---------------------------------------------------
  alpha Z        PSCENC =         0.43695755
  Ewald energy   TEWEN  =       101.99669917
  -Hartree energ DENC   =      -586.23595735
  -exchange      EXHF   =         0.00000000
  -V(xc)+E(xc)   XCENC  =        41.13422352
  PAW double counting   =       892.72620529     -895.52612390
  entropy T*S    EENTRO =         0.00534002
  eigenvalues    EBANDS =      -153.93030384
  atomic energy  EATOM  =       587.33585529
  Solvation  Ediel_sol  =         0.00000000
  ---------------------------------------------------
  free energy    TOTEN  =       -12.05710425 eV

  energy without entropy =      -12.06244426  energy(sigma->0) =      -12.05888425


--------------------------------------------------------------------------------------------------------




----------------------------------------- Iteration    1(  22)  ---------------------------------------


    POTLOK:  cpu time    1.1130: real time    1.1162
    SETDIJ:  cpu time    0.0039: real time    0.0039
    EDDIAG:  cpu time    0.0196: real time    0.0197
  RMM-DIIS:  cpu time    0.1113: real time    0.1117
    ORTHCH:  cpu time    0.0031: real time    0.0031
       DOS:  cpu time    0.0006: real time    0.0006
    --------------------------------------------
      LOOP:  cpu time    1.2524: real time    1.2570

 eigenvalue-minimisations  :   123
 total energy-change (2. order) : 0.8381426E-07  ( 0.0000000E+00)
 number of electron      10.0000005 magnetization       0.0411339
 augmentation part        0.6661036 magnetization       0.0015628

 Free energy of the ion-electron system (eV)
  ---------------------------------------------------
  alpha Z        PSCENC =         0.43695755
  Ewald energy   TEWEN  =       101.99669917
  -Hartree energ DENC   =      -586.23593674
  -exchange      EXHF   =         0.00000000
  -V(xc)+E(xc)   XCENC  =        41.13422342
  PAW double counting   =       892.72588167     -895.52580087
  entropy T*S    EENTRO =         0.00534001
  eigenvalues    EBANDS =      -153.93032367
  atomic energy  EATOM  =       587.33585529
  Solvation  Ediel_sol  =         0.00000000
  ---------------------------------------------------
  free energy    TOTEN  =       -12.05710416 eV

  energy without entropy =      -12.06244417  energy(sigma->0) =      -12.05888417


--------------------------------------------------------------------------------------------------------




 average (electrostatic) potential at core
  the test charge radii are     0.6991  0.7215
  (the norm of the test charge is              1.0000)
       1 -61.9471       2 -83.9503
 
 
 
 E-fermi :  -9.1219     XC(G=0):  -0.6854     alpha+bet : -0.1751


 spin component 1

 k-point     1 :       0.0000    0.0000    0.0000
  band No.  band energies     occupation 
      1     -29.6705      1.00000
      2     -14.2338      1.00000
      3     -11.9203      1.00000
      4     -11.9203      1.00000
      5      -9.2874      1.02057
      6      -2.1707      0.00000
      7      -2.1707      0.00000
      8      -0.3641      0.00000
      9       0.8442      0.00000
     10       1.0121      0.00000
     11       1.0122      0.00000
     12       1.1996      0.00000
     13       1.3080      0.00000
     14       1.3405      0.00000
     15       2.3861      0.00000
     16       2.4461      0.00000
     17       2.4644      0.00000
     18       2.4645      0.00000
     19       2.6951      0.00000
     20       2.6952      0.00000
     21       2.7515      0.00000
     22       2.8152      0.00000
     23       2.9209      0.00000
     24       2.9268      0.00000
     25       2.9269      0.00000
     26       3.0747      0.00000
     27       4.0868      0.00000
     28       4.1877      0.00000
     29       4.1991      0.00000
     30       4.1992      0.00000
     31       4.2617      0.00000
     32       4.3387      0.00000

 spin component 2

 k-point     1 :       0.0000    0.0000    0.0000
  band No.  band energies     occupation 
      1     -29.6586      1.00000
      2     -14.2125      1.00000
      3     -11.9135      1.00000
      4     -11.9135      1.00000
      5      -9.1981      0.97943
      6      -2.1356      0.00000
      7      -2.1356      0.00000
      8      -0.3601      0.00000
      9       0.8463      0.00000
     10       1.0150      0.00000
     11       1.0151      0.00000
     12       1.2033      0.00000
     13       1.3082      0.00000
     14       1.3427      0.00000
     15       2.3873      0.00000
     16       2.4479      0.00000
     17       2.4645      0.00000
     18       2.4647      0.00000
     19       2.6987      0.00000
     20       2.6988      0.00000
     21       2.7524      0.00000
     22       2.8153      0.00000
     23       2.9211      0.00000
     24       2.9270      0.00000
     25       2.9271      0.00000
     26       3.0779      0.00000
     27       4.0873      0.00000
     28       4.1883      0.00000
     29       4.1996      0.00000
     30       4.1996      0.00000
     31       4.2630      0.00000
     32       4.3399      0.00000


--------------------------------------------------------------------------------------------------------


 soft charge-density along one line, spin component           1
         0         1         2         3         4         5         6         7         8         9
 total charge-density along one line
 
 soft charge-density along one line, spin component           2
         0         1         2         3         4         5         6         7         8         9
 total charge-density along one line
 
 pseudopotential strength for first ion, spin component:           1
 10.452  13.905   0.000  -0.024  -0.000  -0.000   0.078   0.000
 13.905  18.499   0.000  -0.031  -0.000  -0.000   0.102   0.000
  0.000   0.000  -4.424   0.000  -0.000   8.653  -0.000   0.000
 -0.024  -0.031   0.000  -4.445  -0.000  -0.000   8.680   0.000
 -0.000  -0.000  -0.000  -0.000  -4.424   0.000   0.000   8.653
 -0.000  -0.000   8.653  -0.000   0.000 -19.072   0.000  -0.000
  0.078   0.102  -0.000   8.680   0.000   0.000 -19.094  -0.000
  0.000   0.000   0.000   0.000   8.653  -0.000  -0.000 -19.072
 pseudopotential strength for first ion, spin component:           2
 10.449  13.902   0.000  -0.025  -0.000  -0.000   0.082   0.000
 13.902  18.494   0.000  -0.033  -0.000  -0.000   0.108   0.000
  0.000   0.000  -4.420   0.000   0.000   8.647  -0.000  -0.000
 -0.025  -0.033   0.000  -4.440  -0.000  -0.000   8.670   0.000
 -0.000  -0.000   0.000  -0.000  -4.420  -0.000   0.000   8.647
 -0.000  -0.000   8.647  -0.000  -0.000 -19.064  -0.000   0.000
  0.082   0.108  -0.000   8.670   0.000  -0.000 -19.080  -0.000
  0.000   0.000  -0.000   0.000   8.647   0.000  -0.000 -19.064
 total augmentation occupancy for first ion, spin component:           1
  8.429  -3.916  -0.000  -2.198  -0.000  -0.000  -0.411  -0.000
 -3.916   2.188   0.000   1.673   0.000   0.000   0.251   0.000
 -0.000   0.000   0.835   0.000  -0.000   0.064   0.000   0.000
 -2.198   1.673   0.000   2.279   0.000   0.000   0.217   0.000
 -0.000   0.000  -0.000   0.000   0.835   0.000   0.000   0.064
 -0.000   0.000   0.064   0.000   0.000   0.005   0.000   0.000
 -0.411   0.251   0.000   0.217   0.000   0.000   0.030   0.000
 -0.000   0.000   0.000   0.000   0.064   0.000   0.000   0.005
 total augmentation occupancy for first ion, spin component:           2
  0.005   0.003  -0.000   0.012   0.000  -0.000   0.001   0.000
  0.003   0.002   0.000   0.007  -0.000   0.000   0.000  -0.000
 -0.000   0.000   0.002   0.000   0.000   0.000   0.000  -0.000
  0.012   0.007   0.000   0.029   0.000  -0.000   0.001   0.000
  0.000  -0.000   0.000   0.000   0.002  -0.000   0.000   0.000
 -0.000   0.000   0.000  -0.000  -0.000  -0.000  -0.000  -0.000
  0.001   0.000   0.000   0.001   0.000  -0.000   0.000  -0.000
  0.000  -0.000  -0.000   0.000   0.000  -0.000  -0.000  -0.000


------------------------ aborting loop because EDIFF is reached ----------------------------------------


 


 total charge     
 
# of ion     s       p       d       tot
----------------------------------------
  1        1.064   1.456   0.000   2.520
  2        1.637   3.575   0.000   5.212
------------------------------------------------
tot        2.701   5.031   0.000   7.732
 


 magnetization (x)
 
# of ion     s       p       d       tot
----------------------------------------
  1        0.008   0.014   0.000   0.022
  2       -0.000   0.003   0.000   0.003
------------------------------------------------
tot        0.008   0.017   0.000   0.025
 
    CHARGE:  cpu time    0.0226: real time    0.0227
    FORLOC:  cpu time    0.0017: real time    0.0017
    FORNL :  cpu time    0.0042: real time    0.0043
    STRESS:  cpu time    0.0395: real time    0.0397
    FORCOR:  cpu time    1.1090: real time    1.1122
    FORHAR:  cpu time    0.0056: real time    0.0056
    MIXING:  cpu time    0.0047: real time    0.0047
    OFIELD:  cpu time    0.0000: real time    0.0000

  FORCE on cell =-STRESS in cart. coord.  units (eV):
  Direction    XX          YY          ZZ          XY          YZ          ZX
  --------------------------------------------------------------------------------------
  Alpha Z     0.43696     0.43696     0.43696
  Ewald     -68.55119   -68.55119   239.09904    -0.00000     0.00000     0.02599
  Hartree   158.89687   158.89663   268.44237    -0.00000     0.00000     0.00894
  E(xc)     -46.59099   -46.59102   -44.65704     0.00000     0.00000     0.00017
  Local    -224.93861  -224.93832  -615.09609     0.00000    -0.00000    -0.03261
  n-local   -17.89173   -17.89170   -29.13511     0.00000     0.00000    -0.00095
  augment     6.27647     6.27535     5.66637     0.00000    -0.00000    -0.00019
  Kinetic   192.32614   192.32658   176.53994    -0.00000    -0.00000    -0.00136
  Fock        0.00000     0.00000     0.00000     0.00000     0.00000     0.00000
  -------------------------------------------------------------------------------------
  Total      -0.03607    -0.03671     1.29645     0.00000    -0.00000    -0.00001
  in kB      -0.05779    -0.05881     2.07715     0.00000    -0.00000    -0.00002
  external pressure =        0.65 kB  Pullay stress =        0.00 kB


 VOLUME and BASIS-vectors are now :
 -----------------------------------------------------------------------------
  energy-cutoff  :      500.00
  volume of cell :     1000.00
      direct lattice vectors                 reciprocal lattice vectors
    10.000000000  0.000000000  0.000000000     0.100000000  0.000000000  0.000000000
     0.000000000 10.000000000  0.000000000     0.000000000  0.100000000  0.000000000
     0.000000000  0.000000000 10.000000000     0.000000000  0.000000000  0.100000000

  length of vectors
    10.000000000 10.000000000 10.000000000     0.100000000  0.100000000  0.100000000


 FORCES acting on ions
    electron-ion (+dipol)            ewald-force                    non-local-force                 convergence-correction
 -----------------------------------------------------------------------------------------------
   -.205E-01 0.331E-07 -.239E+03   0.230E-01 0.542E-16 0.268E+03   -.269E-02 -.117E-07 -.281E+02   -.268E-07 -.469E-07 -.944E-07
   0.180E-01 -.655E-07 0.207E+03   -.230E-01 -.329E-16 -.268E+03   0.396E-02 0.266E-07 0.604E+02   -.266E-07 -.165E-06 0.438E-04
 -----------------------------------------------------------------------------------------------
   -.255E-02 -.324E-07 -.323E+02   0.451E-16 0.212E-16 0.000E+00   0.127E-02 0.149E-07 0.323E+02   -.534E-07 -.212E-06 0.437E-04
 
 
 POSITION                                       TOTAL-FORCE (eV/Angst)
 -----------------------------------------------------------------------------------
      5.20005      5.00000      4.99160         0.000445      0.000000      1.191504
      5.19995      5.00000      3.85974        -0.000445     -0.000000     -1.191504
 -----------------------------------------------------------------------------------
    total drift:                               -0.001281     -0.000000     -0.006938


--------------------------------------------------------------------------------------------------------



  FREE ENERGIE OF THE ION-ELECTRON SYSTEM (eV)
  ---------------------------------------------------
  free  energy   TOTEN  =       -12.05710416 eV

  energy  without entropy=      -12.06244417  energy(sigma->0) =      -12.05888417
 


--------------------------------------------------------------------------------------------------------


    POTLOK:  cpu time    1.1040: real time    1.1072


--------------------------------------------------------------------------------------------------------


 writing wavefunctions
     LOOP+:  cpu time   31.2643: real time   31.3984
    4ORBIT:  cpu time    0.0000: real time    0.0000
 


 total charge     
 
# of ion     s       p       d       tot
----------------------------------------
  1        1.064   1.456   0.000   2.520
  2        1.637   3.575   0.000   5.212
------------------------------------------------
tot        2.701   5.031   0.000   7.732
 


 magnetization (x)
 
# of ion     s       p       d       tot
----------------------------------------
  1        0.008   0.014   0.000   0.022
  2       -0.000   0.003   0.000   0.003
------------------------------------------------
tot        0.008   0.017   0.000   0.025
 

 total amount of memory used by VASP on root node    53060. kBytes
========================================================================

   base      :      30000. kBytes
   nonl-proj :       2037. kBytes
   fftplans  :       2388. kBytes
   grid      :      18221. kBytes
   one-center:          6. kBytes
   wavefun   :        408. kBytes
 
  
  
 General timing and accounting informations for this job:
 ========================================================
  
                  Total CPU time used (sec):       33.727
                            User time (sec):       32.250
                          System time (sec):        1.477
                         Elapsed time (sec):       34.135
  
                   Maximum memory used (kb):      275024.
                   Average memory used (kb):           0.
  
                          Minor page faults:       329368
                          Major page faults:            0
                 Voluntary context switches:         2179
