       N       E                     dE             d eps       ncg     rms          rms(c)
DAV:   1    -0.128120410225E+02   -0.12812E+02   -0.17850E-01    64   0.961E-01    0.377E-01
RMM:   2    -0.128093305998E+02    0.27104E-02   -0.86387E-03    64   0.186E-01    0.163E-01
RMM:   3    -0.128090935068E+02    0.23709E-03   -0.36796E-04    73   0.396E-02    0.903E-02
RMM:   4    -0.128089662309E+02    0.12728E-03   -0.26906E-04    67   0.404E-02    0.186E-02
RMM:   5    -0.128090154079E+02   -0.49177E-04   -0.79168E-05    76   0.175E-02    0.153E-02
RMM:   6    -0.128090778171E+02   -0.62409E-04   -0.20634E-05    66   0.935E-03    0.270E-03
RMM:   7    -0.128091714874E+02   -0.93670E-04   -0.14032E-05    65   0.716E-03    0.917E-03
RMM:   8    -0.128092176549E+02   -0.46167E-04   -0.62814E-06    64   0.467E-03    0.208E-03
RMM:   9    -0.128092632845E+02   -0.45630E-04   -0.29242E-06    64   0.275E-03    0.987E-04
RMM:  10    -0.128092694097E+02   -0.61252E-05   -0.17355E-07    66   0.773E-04    0.908E-04
RMM:  11    -0.128092786255E+02   -0.92158E-05   -0.55571E-07    63   0.111E-03    0.271E-04
RMM:  12    -0.128092794441E+02   -0.81865E-06   -0.20861E-08    79   0.263E-04    0.216E-04
RMM:  13    -0.128092802520E+02   -0.80791E-06   -0.31078E-08    63   0.266E-04    0.344E-05
RMM:  14    -0.128092803603E+02   -0.10832E-06   -0.31134E-09    66   0.968E-05    0.555E-05
RMM:  15    -0.128092803966E+02   -0.36245E-07   -0.18623E-09    66   0.737E-05
   1 F= -.12809280E+02 E0= -.12809280E+02  d E =-.201990E-10
