 vasp.5.4.1 05Feb16 (build Aug 29 2016 09:43:08) gamma-only                     
  
 executed on           IFC91_ompi date 2022.10.05  14:11:47
 running on   32 total cores
 distrk:  each k-point on   32 cores,    1 groups
 distr:  one band on NCORES_PER_BAND=   1 cores,   32 groups


--------------------------------------------------------------------------------------------------------


 INCAR:
 POTCAR:    PAW_PBE O 08Apr2002                   
 POTCAR:    PAW_PBE H 15Jun2001                   

 ----------------------------------------------------------------------------- 
|                                                                             |
|           W    W    AA    RRRRR   N    N  II  N    N   GGGG   !!!           |
|           W    W   A  A   R    R  NN   N  II  NN   N  G    G  !!!           |
|           W    W  A    A  R    R  N N  N  II  N N  N  G       !!!           |
|           W WW W  AAAAAA  RRRRR   N  N N  II  N  N N  G  GGG   !            |
|           WW  WW  A    A  R   R   N   NN  II  N   NN  G    G                |
|           W    W  A    A  R    R  N    N  II  N    N   GGGG   !!!           |
|                                                                             |
|      For optimal performance we recommend to set                            |
|        NCORE= 4 - approx SQRT( number of cores)                             |
|      NCORE specifies how many cores store one orbital (NPAR=cpu/NCORE).     |
|      This setting can  greatly improve the performance of VASP for DFT.     |
|      The default, NPAR=number of cores might be grossly inefficient         |
|      on modern multi-core architectures or massively parallel machines.     |
|      Do your own testing !!!!                                               |
|      Unfortunately you need to use the default for GW and RPA calculations. |
|      (for HF NCORE is supported but not extensively tested yet)             |
|                                                                             |
 ----------------------------------------------------------------------------- 


 ----------------------------------------------------------------------------- 
|                                                                             |
|  ADVICE TO THIS USER RUNNING 'VASP/VAMP'   (HEAR YOUR MASTER'S VOICE ...):  |
|                                                                             |
|      You have switched on vdW-DFT.                                          |
|      This routine was written and supplied by Jiri Klimes.                  |
|      We recommed that you carefully read and cite the following             |
|      publication                                                            |
|      J. Klimes, D.R. Bowler, A. Michelides                                  |
|        J. Phys.: Cond Matt. 22 022201 (2010)                                |
|      J. Klimes, D.R. Bowler, A. Michelides                                  |
|        Phys. Rev. B. 83, 195131 (2011)                                      |
|      and references therein.                                                |
|                                                                             |
 ----------------------------------------------------------------------------- 

 POTCAR:    PAW_PBE O 08Apr2002                   
   VRHFIN =O: s2p4                                                              
   LEXCH  = PE                                                                  
   EATOM  =   432.3788 eV,   31.7789 Ry                                         
                                                                                
   TITEL  = PAW_PBE O 08Apr2002                                                 
   LULTRA =        F    use ultrasoft PP ?                                      
   IUNSCR =        1    unscreen: 0-lin 1-nonlin 2-no                           
   RPACOR =    1.200    partial core radius                                     
   POMASS =   16.000; ZVAL   =    6.000    mass and valenz                      
   RCORE  =    1.520    outmost cutoff radius                                   
   RWIGS  =    1.550; RWIGS  =    0.820    wigner-seitz radius (au A)           
   ENMAX  =  400.000; ENMIN  =  300.000 eV                                      
   ICORE  =        2    local potential                                         
   LCOR   =        T    correct aug charges                                     
   LPAW   =        T    paw PP                                                  
   EAUG   =  605.392                                                            
   DEXC   =    0.000                                                            
   RMAX   =    1.553    core radius for proj-oper                               
   RAUG   =    1.300    factor for augmentation sphere                          
   RDEP   =    1.550    radius for radial grids                                 
   RDEPT  =    1.329    core radius for aug-charge                              
                                                                                
   Atomic configuration                                                         
    4 entries                                                                   
     n  l   j            E        occ.                                          
     1  0  0.50      -514.6923   2.0000                                         
     2  0  0.50       -23.9615   2.0000                                         
     2  1  0.50        -9.0305   4.0000                                         
     3  2  1.50        -9.5241   0.0000                                         
   Description                                                                  
     l       E           TYP  RCUT    TYP  RCUT                                 
     0    -23.9615318     23  1.200                                             
     0     -9.5240782     23  1.200                                             
     1     -9.0304911     23  1.520                                             
     1      8.1634956     23  1.520                                             
     2     -9.5240782      7  1.500                                             
  local pseudopotential read in
  partial core-charges read in
  partial kinetic energy density read in
  kinetic energy density of atom read in
  atomic valenz-charges read in
  non local Contribution for L=           0  read in
    real space projection operators read in
  non local Contribution for L=           0  read in
    real space projection operators read in
  non local Contribution for L=           1  read in
    real space projection operators read in
  non local Contribution for L=           1  read in
    real space projection operators read in
    PAW grid and wavefunctions read in
 
   number of l-projection  operators is LMAX  =           4
   number of lm-projection operators is LMMAX =           8
 
 POTCAR:    PAW_PBE H 15Jun2001                   
   VRHFIN =H: ultrasoft test                                                    
   LEXCH  = PE                                                                  
   EATOM  =    12.4884 eV,    0.9179 Ry                                         
                                                                                
   TITEL  = PAW_PBE H 15Jun2001                                                 
   LULTRA =        F    use ultrasoft PP ?                                      
   IUNSCR =        0    unscreen: 0-lin 1-nonlin 2-no                           
   RPACOR =    0.000    partial core radius                                     
   POMASS =    1.000; ZVAL   =    1.000    mass and valenz                      
   RCORE  =    1.100    outmost cutoff radius                                   
   RWIGS  =    0.700; RWIGS  =    0.370    wigner-seitz radius (au A)           
   ENMAX  =  250.000; ENMIN  =  200.000 eV                                      
   RCLOC  =    0.701    cutoff for local pot                                    
   LCOR   =        T    correct aug charges                                     
   LPAW   =        T    paw PP                                                  
   EAUG   =  400.000                                                            
   RMAX   =    1.123    core radius for proj-oper                               
   RAUG   =    1.200    factor for augmentation sphere                          
   RDEP   =    1.112    radius for radial grids                                 
   RDEPT  =    0.926    core radius for aug-charge                              
                                                                                
   Atomic configuration                                                         
    2 entries                                                                   
     n  l   j            E        occ.                                          
     1  0  0.50        -6.4927   1.0000                                         
     2  1  0.50        -3.4015   0.0000                                         
   Description                                                                  
     l       E           TYP  RCUT    TYP  RCUT                                 
     0     -6.4927494     23  1.100                                             
     0      6.8029130     23  1.100                                             
     1     -4.0817478     23  1.100                                             
  local pseudopotential read in
  atomic valenz-charges read in
  non local Contribution for L=           0  read in
    real space projection operators read in
  non local Contribution for L=           0  read in
    real space projection operators read in
  non local Contribution for L=           1  read in
    real space projection operators read in
    PAW grid and wavefunctions read in
 
   number of l-projection  operators is LMAX  =           3
   number of lm-projection operators is LMMAX =           5
 

 ----------------------------------------------------------------------------- 
|                                                                             |
|  ADVICE TO THIS USER RUNNING 'VASP/VAMP'   (HEAR YOUR MASTER'S VOICE ...):  |
|                                                                             |
|      You enforced a specific xc-type in the INCAR file,                     |
|      a different type was found on the POTCAR file                          |
|          I HOPE YOU KNOW, WHAT YOU ARE  DOING                               |
|                                                                             |
 ----------------------------------------------------------------------------- 

  PAW_PBE O 08Apr2002                   :
 energy of atom  1       EATOM= -432.3788
 kinetic energy error for atom=    0.0224 (will be added to EATOM!!)
  PAW_PBE H 15Jun2001                   :
 energy of atom  2       EATOM=  -12.4884
 kinetic energy error for atom=    0.0020 (will be added to EATOM!!)
 
 
 POSCAR:  O  H                                   
  positions in cartesian coordinates
  No initial velocities read in
 exchange correlation table for  LEXCH =       17
   RHO(1)=    0.500       N(1)  =     2000
   RHO(2)=  100.500       N(2)  =     4000
 


--------------------------------------------------------------------------------------------------------


 ion  position               nearest neighbor table
   1  0.500  0.500  0.540-   3 0.96   2 0.96
   2  0.500  0.576  0.480-   1 0.96
   3  0.500  0.424  0.482-   1 0.96
 

IMPORTANT INFORMATION: All symmetrisations will be switched off!
NOSYMM: (Re-)initialisation of all symmetry stuff for point group C_1.

 
 
 KPOINTS: KPOINTS created by Atomic Simulation Env

Automatic generation of k-mesh.
Space group operators:
 irot       det(A)        alpha          n_x          n_y          n_z        tau_x        tau_y        tau_z
    1     1.000000     0.000000     1.000000     0.000000     0.000000     0.000000     0.000000     0.000000
 
 Subroutine IBZKPT returns following result:
 ===========================================
 
 Found      1 irreducible k-points:
 
 Following reciprocal coordinates:
            Coordinates               Weight
  0.000000  0.000000  0.000000      1.000000
 
 Following cartesian coordinates:
            Coordinates               Weight
  0.000000  0.000000  0.000000      1.000000
 


--------------------------------------------------------------------------------------------------------




 Dimension of arrays:
   k-points           NKPTS =      1   k-points in BZ     NKDIM =      1   number of bands    NBANDS=     32
   number of dos      NEDOS =    301   number of ions     NIONS =      3
   non local maximal  LDIM  =      4   non local SUM 2l+1 LMDIM =      8
   total plane-waves  NPLWV = 175616
   max r-space proj   IRMAX =      1   max aug-charges    IRDMAX=   2478
   dimension x,y,z NGX =    56 NGY =   56 NGZ =   56
   dimension x,y,z NGXF=   112 NGYF=  112 NGZF=  112
   support grid    NGXF=   112 NGYF=  112 NGZF=  112
   ions per type =               1   2
 NGX,Y,Z   is equivalent  to a cutoff of   9.31,  9.31,  9.31 a.u.
 NGXF,Y,Z  is equivalent  to a cutoff of  18.62, 18.62, 18.62 a.u.


 I would recommend the setting:
   dimension x,y,z NGX =    55 NGY =   55 NGZ =   55
 SYSTEM =  unknown system                          
 POSCAR =   O  H                                   

 Startparameter for this run:
   NWRITE =      2    write-flag & timer
   PREC   = normal    normal or accurate (medium, high low for compatibility)
   ISTART =      1    job   : 0-new  1-cont  2-samecut
   ICHARG =      0    charge: 1-file 2-atom 10-const
   ISPIN  =      1    spin polarized calculation?
   LNONCOLLINEAR =      F non collinear calculations
   LSORBIT =      F    spin-orbit coupling
   INIWAV =      1    electr: 0-lowe 1-rand  2-diag
   LASPH  =      F    aspherical Exc in radial PAW
   METAGGA=      F    non-selfconsistent MetaGGA calc.

 Electronic Relaxation 1
   ENCUT  =  500.0 eV  36.75 Ry    6.06 a.u.  18.23 18.23 18.23*2*pi/ulx,y,z
   ENINI  =  500.0     initial cutoff
   ENAUG  =  605.4 eV  augmentation charge cutoff
   NELM   =    450;   NELMIN=  2; NELMDL=  0     # of ELM steps 
   EDIFF  = 0.1E-06   stopping-criterion for ELM
   LREAL  =      F    real-space projection
   NLSPLINE    = F    spline interpolate recip. space projectors
   LCOMPAT=      F    compatible to vasp.4.4
   GGA_COMPAT  = T    GGA compatible to vasp.4.4-vasp.4.6
   LMAXPAW     = -100 max onsite density
   LMAXMIX     =    2 max onsite mixed and CHGCAR
   VOSKOWN=      0    Vosko Wilk Nusair interpolation
   ROPT   =    0.00000   0.00000
 Ionic relaxation
   EDIFFG = -.1E-01   stopping-criterion for IOM
   NSW    =      1    number of steps for IOM
   NBLOCK =      1;   KBLOCK =      1    inner block; outer block 
   IBRION =     -1    ionic relax: 0-MD 1-quasi-New 2-CG
   NFREE  =      0    steps in history (QN), initial steepest desc. (CG)
   ISIF   =      2    stress and relaxation
   IWAVPR =     10    prediction:  0-non 1-charg 2-wave 3-comb
   ISYM   =      0    0-nonsym 1-usesym 2-fastsym
   LCORR  =      T    Harris-Foulkes like correction to forces

   POTIM  = 0.5000    time-step for ionic-motion
   TEIN   =    0.0    initial temperature
   TEBEG  =    0.0;   TEEND  =   0.0 temperature during run
   SMASS  =  -3.00    Nose mass-parameter (am)
   estimated Nose-frequenzy (Omega)   =  0.10E-29 period in steps =****** mass=  -0.229E-26a.u.
   SCALEE = 1.0000    scale energy and forces
   NPACO  =    256;   APACO  = 16.0  distance and # of slots for P.C.
   PSTRESS=    0.0 pullay stress

  Mass of Ions in am
   POMASS =  16.00  1.00
  Ionic Valenz
   ZVAL   =   6.00  1.00
  Atomic Wigner-Seitz radii
   RWIGS  =  -1.00 -1.00
  virtual crystal weights 
   VCA    =   1.00  1.00
   NELECT =       8.0000    total number of electrons
   NUPDOWN=      -1.0000    fix difference up-down

 DOS related values:
   EMIN   =  10.00;   EMAX   =-10.00  energy-range for DOS
   EFERMI =   0.00
   ISMEAR =     0;   SIGMA  =   0.10  broadening in eV -4-tet -1-fermi 0-gaus

 Electronic relaxation 2 (details)
   IALGO  =     68    algorithm
   LDIAG  =      T    sub-space diagonalisation (order eigenvalues)
   LSUBROT=      F    optimize rotation matrix (better conditioning)
   TURBO    =      0    0=normal 1=particle mesh
   IRESTART =      0    0=no restart 2=restart with 2 vectors
   NREBOOT  =      0    no. of reboots
   NMIN     =      0    reboot dimension
   EREF     =   0.00    reference energy to select bands
   IMIX   =      4    mixing-type and parameters
     AMIX     =   0.40;   BMIX     =  1.00
     AMIX_MAG =   1.60;   BMIX_MAG =  1.00
     AMIN     =   0.10
     WC   =   100.;   INIMIX=   1;  MIXPRE=   1;  MAXMIX= -45

 Intra band minimization:
   WEIMIN = 0.0000     energy-eigenvalue tresh-hold
   EBREAK =  0.78E-09  absolut break condition
   DEPER  =   0.30     relativ break condition  

   TIME   =   0.40     timestep for ELM

  volume/ion in A,a.u.               =     333.33      2249.44
  Fermi-wavevector in a.u.,A,eV,Ry     =   0.327420  0.618734  1.458594  0.107204
  Thomas-Fermi vector in A             =   1.220131
 
 Write flags
   LWAVE  =      T    write WAVECAR
   LCHARG =      T    write CHGCAR
   LVTOT  =      F    write LOCPOT, total local potential
   LVHAR  =      F    write LOCPOT, Hartree potential only
   LELF   =      F    write electronic localiz. function (ELF)
   LORBIT =     11    0 simple, 1 ext, 2 COOP (PROOUT)


 Dipole corrections
   LMONO  =      F    monopole corrections only (constant potential shift)
   LDIPOL =      F    correct potential (dipole corrections)
   IDIPOL =      0    1-x, 2-y, 3-z, 4-all directions 
   EPSILON=  1.0000000 bulk dielectric constant

 Exchange correlation treatment:
   GGA     =    BF    GGA type
   LEXCH   =    17    internal setting for exchange type
   VOSKOWN=      0    Vosko Wilk Nusair interpolation
   LHFCALC =     F    Hartree Fock is set to
   LHFONE  =     F    Hartree Fock one center treatment
   AEXX    =    0.0000 exact exchange contribution

 vdW DFT:
   LUSE_VDW   =     T    switch on vdW DFT
   Zab_VDW    =******    correlation parameter
   PARAM1     =0.1234
   PARAM2     =1.0000
   PARAM3     =0.0000

 Linear response parameters
   LEPSILON=     F    determine dielectric tensor
   LRPA    =     F    only Hartree local field effects (RPA)
   LNABLA  =     F    use nabla operator in PAW spheres
   LVEL    =     F    velocity operator in full k-point grid
   LINTERFAST=   F  fast interpolation
   KINTER  =     0    interpolate to denser k-point grid
   CSHIFT  =0.1000    complex shift for real part using Kramers Kronig
   OMEGAMAX=  -1.0    maximum frequency
   DEG_THRESHOLD= 0.2000000E-02 threshold for treating states as degnerate
   RTIME   =    0.100 relaxation time in fs

 Orbital magnetization related:
   ORBITALMAG=     F  switch on orbital magnetization
   LCHIMAG   =     F  perturbation theory with respect to B field
   DQ        =  0.001000  dq finite difference perturbation B field



--------------------------------------------------------------------------------------------------------


 Static calculation
 charge density and potential will be updated during run
 non-spin polarized calculation
 RMM-DIIS sequential band-by-band and
  variant of blocked Davidson during initial phase
 perform sub-space diagonalisation
    before iterative eigenvector-optimisation
 modified Broyden-mixing scheme, WC =      100.0
 initial mixing is a Kerker type mixing with AMIX =  0.4000 and BMIX =      1.0000
 Hartree-type preconditioning will be used
 using additional bands           28
 reciprocal scheme for non local part
 use partial core corrections
 calculate Harris-corrections to forces 
   (improved forces if not selfconsistent)
 use gradient corrections 
 use of overlap-Matrix (Vanderbilt PP)
 Gauss-broadening in eV      SIGMA  =   0.10


--------------------------------------------------------------------------------------------------------


  energy-cutoff  :      500.00
  volume of cell :     1000.00
      direct lattice vectors                 reciprocal lattice vectors
    10.000000000  0.000000000  0.000000000     0.100000000  0.000000000  0.000000000
     0.000000000 10.000000000  0.000000000     0.000000000  0.100000000  0.000000000
     0.000000000  0.000000000 10.000000000     0.000000000  0.000000000  0.100000000

  length of vectors
    10.000000000 10.000000000 10.000000000     0.100000000  0.100000000  0.100000000


 
 old parameters found on file WAVECAR:
  energy-cutoff  :      500.00
  volume of cell :     1000.00
      direct lattice vectors                 reciprocal lattice vectors
    10.000000000  0.000000000  0.000000000     0.100000000  0.000000000  0.000000000
     0.000000000 10.000000000  0.000000000     0.000000000  0.100000000  0.000000000
     0.000000000  0.000000000 10.000000000     0.000000000  0.000000000  0.100000000

  length of vectors

 
 k-points in units of 2pi/SCALE and weight: KPOINTS created by Atomic Simulation Env
   0.00000000  0.00000000  0.00000000       1.000
 
 k-points in reciprocal lattice and weights: KPOINTS created by Atomic Simulation Env
   0.00000000  0.00000000  0.00000000       1.000
 
 position of ions in fractional coordinates (direct lattice) 
   0.50000000  0.50021549  0.53968342
   0.50000000  0.57622763  0.48024092
   0.50000000  0.42355687  0.48207567
 
 position of ions in cartesian coordinates  (Angst):
   5.00000000  5.00215491  5.39683421
   5.00000000  5.76227634  4.80240919
   5.00000000  4.23556875  4.82075668
 


--------------------------------------------------------------------------------------------------------


 use seriel FFT for wavefunctions x direction half grid
 k-point  1 :   0.0000 0.0000 0.0000  plane waves:   12707

 maximum and minimum number of plane-waves per node :     12707    12707

 maximum number of plane-waves:     12707
 maximum index in each direction: 
   IXMAX=   18   IYMAX=   18   IZMAX=   18
   IXMIN=    0   IYMIN=  -18   IZMIN=  -18

 WARNING: aliasing errors must be expected set NGX to  74 to avoid them
 WARNING: aliasing errors must be expected set NGY to  74 to avoid them
 WARNING: aliasing errors must be expected set NGZ to  74 to avoid them
 aliasing errors are usually negligible using standard VASP settings
 and one can safely disregard these warnings

 serial   3D FFT for wavefunctions
 parallel 3D FFT for charge:
    minimum data exchange during FFTs selected (reduces bandwidth)


 total amount of memory used by VASP on root node    44757. kBytes
========================================================================

   base      :      30000. kBytes
   nonl-proj :       2241. kBytes
   fftplans  :       2388. kBytes
   grid      :       9920. kBytes
   one-center:          4. kBytes
   wavefun   :        204. kBytes
 
     INWAV:  cpu time    0.0266: real time    0.0297
 Broyden mixing: mesh for mixing (old mesh)
   NGX = 37   NGY = 37   NGZ = 37
  (NGX  =112   NGY  =112   NGZ  =112)
  gives a total of  50653 points

 charge density for first step will be calculated from the start-wavefunctions


--------------------------------------------------------------------------------------------------------


 Maximum index for augmentation-charges            5 (set IRDMAX)


--------------------------------------------------------------------------------------------------------


 initial charge from wavefunction
 First call to EWALD:  gamma=   0.177
 Maximum number of real-space cells 3x 3x 3
 Maximum number of reciprocal cells 3x 3x 3

 FEWALD executed in parallel
    FEWALD:  cpu time    0.0012: real time    0.0012


----------------------------------------- Iteration    1(   1)  ---------------------------------------


vdW kernel read from vdw_kernel.bindat
  0.0000  0.2424  0.5071  0.7962  1.1119  1.4567  1.8333  2.2446  2.6937  3.1842
  3.7199  4.3049  4.9438  5.6415  6.4036  7.2358  8.1446  9.1372 10.2212 11.4050
 12.6979 14.1099 15.6519 17.3360 19.1751 21.1837 23.3773 25.7729 28.3892 31.2465
 34.3669 37.7748 41.4965 45.5611 50.0000
 
    POTLOK:  cpu time    1.2663: real time    1.2701
    SETDIJ:  cpu time    0.0015: real time    0.0016
     EDDAV:  cpu time    0.0320: real time    0.0322
       DOS:  cpu time    0.0005: real time    0.0005
    CHARGE:  cpu time    0.0110: real time    0.0110
    MIXING:  cpu time    0.0013: real time    0.0013
    --------------------------------------------
      LOOP:  cpu time    1.3142: real time    1.3191

 eigenvalue-minimisations  :    64
 total energy-change (2. order) :-0.1281204E+02  (-0.1785033E-01)
 number of electron       8.0000004 magnetization 
 augmentation part        0.7062621 magnetization 

 Broyden mixing:
  rms(total) = 0.37719E-01    rms(broyden)= 0.37705E-01
  rms(prec ) = 0.48296E-01
  weight for this iteration     100.00

 Free energy of the ion-electron system (eV)
  ---------------------------------------------------
  alpha Z        PSCENC =         0.22425129
  Ewald energy   TEWEN  =        58.73490864
  -Hartree energ DENC   =      -454.11798900
  -exchange      EXHF   =         0.00000000
  -V(xc)+E(xc)   XCENC  =        34.52022437
  PAW double counting   =       548.25852500     -550.35196410
  entropy T*S    EENTRO =        -0.00000000
  eigenvalues    EBANDS =      -113.29242650
  atomic energy  EATOM  =       463.21242928
  Solvation  Ediel_sol  =         0.00000000
  ---------------------------------------------------
  free energy    TOTEN  =       -12.81204102 eV

  energy without entropy =      -12.81204102  energy(sigma->0) =      -12.81204102


--------------------------------------------------------------------------------------------------------




----------------------------------------- Iteration    1(   2)  ---------------------------------------


    POTLOK:  cpu time    1.0475: real time    1.0511
    SETDIJ:  cpu time    0.0021: real time    0.0021
    EDDIAG:  cpu time    0.0167: real time    0.0168
  RMM-DIIS:  cpu time    0.0444: real time    0.0446
    ORTHCH:  cpu time    0.0034: real time    0.0034
       DOS:  cpu time    0.0005: real time    0.0005
    CHARGE:  cpu time    0.0126: real time    0.0127
    MIXING:  cpu time    0.0017: real time    0.0017
    --------------------------------------------
      LOOP:  cpu time    1.1297: real time    1.1346

 eigenvalue-minimisations  :    64
 total energy-change (2. order) : 0.2710423E-02  (-0.8638725E-03)
 number of electron       8.0000004 magnetization 
 augmentation part        0.7012319 magnetization 

 Broyden mixing:
  rms(total) = 0.16273E-01    rms(broyden)= 0.16267E-01
  rms(prec ) = 0.19385E-01
  weight for this iteration     100.00

 eigenvalues of (default mixing * dielectric matrix)
  average eigenvalue GAMMA=   1.1442
  1.1442

 Free energy of the ion-electron system (eV)
  ---------------------------------------------------
  alpha Z        PSCENC =         0.22425129
  Ewald energy   TEWEN  =        58.73490864
  -Hartree energ DENC   =      -454.94061711
  -exchange      EXHF   =         0.00000000
  -V(xc)+E(xc)   XCENC  =        34.56699350
  PAW double counting   =       550.70427796     -552.80979820
  entropy T*S    EENTRO =        -0.00000000
  eigenvalues    EBANDS =      -112.50177596
  atomic energy  EATOM  =       463.21242928
  Solvation  Ediel_sol  =         0.00000000
  ---------------------------------------------------
  free energy    TOTEN  =       -12.80933060 eV

  energy without entropy =      -12.80933060  energy(sigma->0) =      -12.80933060


--------------------------------------------------------------------------------------------------------




----------------------------------------- Iteration    1(   3)  ---------------------------------------


    POTLOK:  cpu time    1.0270: real time    1.0304
    SETDIJ:  cpu time    0.0013: real time    0.0013
    EDDIAG:  cpu time    0.0099: real time    0.0100
  RMM-DIIS:  cpu time    0.0569: real time    0.0572
    ORTHCH:  cpu time    0.0032: real time    0.0032
       DOS:  cpu time    0.0001: real time    0.0001
    CHARGE:  cpu time    0.0118: real time    0.0119
    MIXING:  cpu time    0.0012: real time    0.0012
    --------------------------------------------
      LOOP:  cpu time    1.1125: real time    1.1176

 eigenvalue-minimisations  :    73
 total energy-change (2. order) : 0.2370930E-03  (-0.3679638E-04)
 number of electron       8.0000004 magnetization 
 augmentation part        0.7007688 magnetization 

 Broyden mixing:
  rms(total) = 0.90307E-02    rms(broyden)= 0.90300E-02
  rms(prec ) = 0.10781E-01
  weight for this iteration     100.00

 eigenvalues of (default mixing * dielectric matrix)
  average eigenvalue GAMMA=   1.7430
  1.0926  2.3934

 Free energy of the ion-electron system (eV)
  ---------------------------------------------------
  alpha Z        PSCENC =         0.22425129
  Ewald energy   TEWEN  =        58.73490864
  -Hartree energ DENC   =      -454.98758243
  -exchange      EXHF   =         0.00000000
  -V(xc)+E(xc)   XCENC  =        34.56859186
  PAW double counting   =       551.23212956     -553.33703148
  entropy T*S    EENTRO =        -0.00000000
  eigenvalues    EBANDS =      -112.45679023
  atomic energy  EATOM  =       463.21242928
  Solvation  Ediel_sol  =         0.00000000
  ---------------------------------------------------
  free energy    TOTEN  =       -12.80909351 eV

  energy without entropy =      -12.80909351  energy(sigma->0) =      -12.80909351


--------------------------------------------------------------------------------------------------------




----------------------------------------- Iteration    1(   4)  ---------------------------------------


    POTLOK:  cpu time    1.0452: real time    1.0488
    SETDIJ:  cpu time    0.0018: real time    0.0018
    EDDIAG:  cpu time    0.0123: real time    0.0124
  RMM-DIIS:  cpu time    0.0424: real time    0.0426
    ORTHCH:  cpu time    0.0036: real time    0.0037
       DOS:  cpu time    0.0006: real time    0.0006
    CHARGE:  cpu time    0.0137: real time    0.0137
    MIXING:  cpu time    0.0016: real time    0.0017
    --------------------------------------------
      LOOP:  cpu time    1.1224: real time    1.1277

 eigenvalue-minimisations  :    67
 total energy-change (2. order) : 0.1272759E-03  (-0.2690589E-04)
 number of electron       8.0000004 magnetization 
 augmentation part        0.7011233 magnetization 

 Broyden mixing:
  rms(total) = 0.18602E-02    rms(broyden)= 0.18592E-02
  rms(prec ) = 0.26693E-02
  weight for this iteration     100.00

 eigenvalues of (default mixing * dielectric matrix)
  average eigenvalue GAMMA=   1.7342
  2.4753  1.2931  1.4341

 Free energy of the ion-electron system (eV)
  ---------------------------------------------------
  alpha Z        PSCENC =         0.22425129
  Ewald energy   TEWEN  =        58.73490864
  -Hartree energ DENC   =      -454.95203761
  -exchange      EXHF   =         0.00000000
  -V(xc)+E(xc)   XCENC  =        34.56519573
  PAW double counting   =       551.55700922     -553.65986836
  entropy T*S    EENTRO =        -0.00000000
  eigenvalues    EBANDS =      -112.49085442
  atomic energy  EATOM  =       463.21242928
  Solvation  Ediel_sol  =         0.00000000
  ---------------------------------------------------
  free energy    TOTEN  =       -12.80896623 eV

  energy without entropy =      -12.80896623  energy(sigma->0) =      -12.80896623


--------------------------------------------------------------------------------------------------------




----------------------------------------- Iteration    1(   5)  ---------------------------------------


    POTLOK:  cpu time    1.0373: real time    1.0407
    SETDIJ:  cpu time    0.0016: real time    0.0016
    EDDIAG:  cpu time    0.0108: real time    0.0109
  RMM-DIIS:  cpu time    0.0558: real time    0.0561
    ORTHCH:  cpu time    0.0034: real time    0.0034
       DOS:  cpu time    0.0004: real time    0.0004
    CHARGE:  cpu time    0.0116: real time    0.0117
    MIXING:  cpu time    0.0016: real time    0.0016
    --------------------------------------------
      LOOP:  cpu time    1.1236: real time    1.1286

 eigenvalue-minimisations  :    76
 total energy-change (2. order) :-0.4917706E-04  (-0.7916752E-05)
 number of electron       8.0000004 magnetization 
 augmentation part        0.7006349 magnetization 

 Broyden mixing:
  rms(total) = 0.15301E-02    rms(broyden)= 0.15295E-02
  rms(prec ) = 0.20879E-02
  weight for this iteration     100.00

 eigenvalues of (default mixing * dielectric matrix)
  average eigenvalue GAMMA=   1.6756
  0.9542  0.9542  2.5277  2.2664

 Free energy of the ion-electron system (eV)
  ---------------------------------------------------
  alpha Z        PSCENC =         0.22425129
  Ewald energy   TEWEN  =        58.73490864
  -Hartree energ DENC   =      -455.03763153
  -exchange      EXHF   =         0.00000000
  -V(xc)+E(xc)   XCENC  =        34.56979986
  PAW double counting   =       551.61255089     -553.71649504
  entropy T*S    EENTRO =        -0.00000000
  eigenvalues    EBANDS =      -112.40882880
  atomic energy  EATOM  =       463.21242928
  Solvation  Ediel_sol  =         0.00000000
  ---------------------------------------------------
  free energy    TOTEN  =       -12.80901541 eV

  energy without entropy =      -12.80901541  energy(sigma->0) =      -12.80901541


--------------------------------------------------------------------------------------------------------




----------------------------------------- Iteration    1(   6)  ---------------------------------------


    POTLOK:  cpu time    1.0282: real time    1.0316
    SETDIJ:  cpu time    0.0014: real time    0.0014
    EDDIAG:  cpu time    0.0100: real time    0.0100
  RMM-DIIS:  cpu time    0.0430: real time    0.0433
    ORTHCH:  cpu time    0.0030: real time    0.0031
       DOS:  cpu time    0.0001: real time    0.0001
    CHARGE:  cpu time    0.0116: real time    0.0116
    MIXING:  cpu time    0.0015: real time    0.0015
    --------------------------------------------
      LOOP:  cpu time    1.0997: real time    1.1045

 eigenvalue-minimisations  :    66
 total energy-change (2. order) :-0.6240921E-04  (-0.2063420E-05)
 number of electron       8.0000004 magnetization 
 augmentation part        0.7008476 magnetization 

 Broyden mixing:
  rms(total) = 0.26959E-03    rms(broyden)= 0.26914E-03
  rms(prec ) = 0.68637E-03
  weight for this iteration     100.00

 eigenvalues of (default mixing * dielectric matrix)
  average eigenvalue GAMMA=   1.6510
  2.5651  2.3514  1.3044  1.0169  1.0169

 Free energy of the ion-electron system (eV)
  ---------------------------------------------------
  alpha Z        PSCENC =         0.22425129
  Ewald energy   TEWEN  =        58.73490864
  -Hartree energ DENC   =      -455.00532794
  -exchange      EXHF   =         0.00000000
  -V(xc)+E(xc)   XCENC  =        34.56764797
  PAW double counting   =       551.48084167     -553.58406740
  entropy T*S    EENTRO =        -0.00000000
  eigenvalues    EBANDS =      -112.43976132
  atomic energy  EATOM  =       463.21242928
  Solvation  Ediel_sol  =         0.00000000
  ---------------------------------------------------
  free energy    TOTEN  =       -12.80907782 eV

  energy without entropy =      -12.80907782  energy(sigma->0) =      -12.80907782


--------------------------------------------------------------------------------------------------------




----------------------------------------- Iteration    1(   7)  ---------------------------------------


    POTLOK:  cpu time    1.0216: real time    1.0249
    SETDIJ:  cpu time    0.0013: real time    0.0013
    EDDIAG:  cpu time    0.0097: real time    0.0097
  RMM-DIIS:  cpu time    0.0334: real time    0.0336
    ORTHCH:  cpu time    0.0018: real time    0.0018
       DOS:  cpu time    0.0001: real time    0.0001
    CHARGE:  cpu time    0.0116: real time    0.0116
    MIXING:  cpu time    0.0013: real time    0.0013
    --------------------------------------------
      LOOP:  cpu time    1.0815: real time    1.0862

 eigenvalue-minimisations  :    65
 total energy-change (2. order) :-0.9367029E-04  (-0.1403246E-05)
 number of electron       8.0000004 magnetization 
 augmentation part        0.7010067 magnetization 

 Broyden mixing:
  rms(total) = 0.91691E-03    rms(broyden)= 0.91671E-03
  rms(prec ) = 0.12205E-02
  weight for this iteration     100.00

 eigenvalues of (default mixing * dielectric matrix)
  average eigenvalue GAMMA=   1.7809
  3.2246  2.5431  1.9251  0.9817  0.9817  1.0294

 Free energy of the ion-electron system (eV)
  ---------------------------------------------------
  alpha Z        PSCENC =         0.22425129
  Ewald energy   TEWEN  =        58.73490864
  -Hartree energ DENC   =      -454.98729306
  -exchange      EXHF   =         0.00000000
  -V(xc)+E(xc)   XCENC  =        34.56636666
  PAW double counting   =       551.42066928     -553.52348048
  entropy T*S    EENTRO =        -0.00000000
  eigenvalues    EBANDS =      -112.45702310
  atomic energy  EATOM  =       463.21242928
  Solvation  Ediel_sol  =         0.00000000
  ---------------------------------------------------
  free energy    TOTEN  =       -12.80917149 eV

  energy without entropy =      -12.80917149  energy(sigma->0) =      -12.80917149


--------------------------------------------------------------------------------------------------------




----------------------------------------- Iteration    1(   8)  ---------------------------------------


    POTLOK:  cpu time    1.0165: real time    1.0199
    SETDIJ:  cpu time    0.0014: real time    0.0014
    EDDIAG:  cpu time    0.0097: real time    0.0097
  RMM-DIIS:  cpu time    0.0329: real time    0.0331
    ORTHCH:  cpu time    0.0018: real time    0.0018
       DOS:  cpu time    0.0001: real time    0.0001
    CHARGE:  cpu time    0.0115: real time    0.0116
    MIXING:  cpu time    0.0013: real time    0.0014
    --------------------------------------------
      LOOP:  cpu time    1.0761: real time    1.0809

 eigenvalue-minimisations  :    64
 total energy-change (2. order) :-0.4616746E-04  (-0.6281412E-06)
 number of electron       8.0000004 magnetization 
 augmentation part        0.7008847 magnetization 

 Broyden mixing:
  rms(total) = 0.20816E-03    rms(broyden)= 0.20798E-03
  rms(prec ) = 0.33280E-03
  weight for this iteration     100.00

 eigenvalues of (default mixing * dielectric matrix)
  average eigenvalue GAMMA=   2.2125
  5.3136  2.8457  2.5146  1.7910  1.0076  1.0076  1.0077

 Free energy of the ion-electron system (eV)
  ---------------------------------------------------
  alpha Z        PSCENC =         0.22425129
  Ewald energy   TEWEN  =        58.73490864
  -Hartree energ DENC   =      -455.00958510
  -exchange      EXHF   =         0.00000000
  -V(xc)+E(xc)   XCENC  =        34.56751441
  PAW double counting   =       551.44364306     -553.54674267
  entropy T*S    EENTRO =        -0.00000000
  eigenvalues    EBANDS =      -112.43563656
  atomic energy  EATOM  =       463.21242928
  Solvation  Ediel_sol  =         0.00000000
  ---------------------------------------------------
  free energy    TOTEN  =       -12.80921765 eV

  energy without entropy =      -12.80921765  energy(sigma->0) =      -12.80921765


--------------------------------------------------------------------------------------------------------




----------------------------------------- Iteration    1(   9)  ---------------------------------------


    POTLOK:  cpu time    1.0279: real time    1.0314
    SETDIJ:  cpu time    0.0013: real time    0.0013
    EDDIAG:  cpu time    0.0095: real time    0.0095
  RMM-DIIS:  cpu time    0.0332: real time    0.0335
    ORTHCH:  cpu time    0.0020: real time    0.0020
       DOS:  cpu time    0.0001: real time    0.0001
    CHARGE:  cpu time    0.0114: real time    0.0115
    MIXING:  cpu time    0.0014: real time    0.0014
    --------------------------------------------
      LOOP:  cpu time    1.0877: real time    1.0925

 eigenvalue-minimisations  :    64
 total energy-change (2. order) :-0.4562958E-04  (-0.2924210E-06)
 number of electron       8.0000004 magnetization 
 augmentation part        0.7008350 magnetization 

 Broyden mixing:
  rms(total) = 0.98654E-04    rms(broyden)= 0.98445E-04
  rms(prec ) = 0.14822E-03
  weight for this iteration     100.00

 eigenvalues of (default mixing * dielectric matrix)
  average eigenvalue GAMMA=   2.1921
  6.2298  2.7243  2.3478  2.0678  1.1351  0.9866  1.0229  1.0229

 Free energy of the ion-electron system (eV)
  ---------------------------------------------------
  alpha Z        PSCENC =         0.22425129
  Ewald energy   TEWEN  =        58.73490864
  -Hartree energ DENC   =      -455.01525123
  -exchange      EXHF   =         0.00000000
  -V(xc)+E(xc)   XCENC  =        34.56775355
  PAW double counting   =       551.46685659     -553.57003850
  entropy T*S    EENTRO =        -0.00000000
  eigenvalues    EBANDS =      -112.43017290
  atomic energy  EATOM  =       463.21242928
  Solvation  Ediel_sol  =         0.00000000
  ---------------------------------------------------
  free energy    TOTEN  =       -12.80926328 eV

  energy without entropy =      -12.80926328  energy(sigma->0) =      -12.80926328


--------------------------------------------------------------------------------------------------------




----------------------------------------- Iteration    1(  10)  ---------------------------------------


    POTLOK:  cpu time    1.0455: real time    1.0491
    SETDIJ:  cpu time    0.0018: real time    0.0018
    EDDIAG:  cpu time    0.0117: real time    0.0117
  RMM-DIIS:  cpu time    0.0414: real time    0.0416
    ORTHCH:  cpu time    0.0021: real time    0.0021
       DOS:  cpu time    0.0005: real time    0.0005
    CHARGE:  cpu time    0.0128: real time    0.0128
    MIXING:  cpu time    0.0020: real time    0.0021
    --------------------------------------------
      LOOP:  cpu time    1.1187: real time    1.1237

 eigenvalue-minimisations  :    66
 total energy-change (2. order) :-0.6125235E-05  (-0.1735481E-07)
 number of electron       8.0000004 magnetization 
 augmentation part        0.7008325 magnetization 

 Broyden mixing:
  rms(total) = 0.90755E-04    rms(broyden)= 0.90740E-04
  rms(prec ) = 0.12970E-03
  weight for this iteration     100.00

 eigenvalues of (default mixing * dielectric matrix)
  average eigenvalue GAMMA=   2.4342
  7.3744  3.5378  2.5086  2.5086  1.9440  1.0165  0.9833  1.0171  1.0171

 Free energy of the ion-electron system (eV)
  ---------------------------------------------------
  alpha Z        PSCENC =         0.22425129
  Ewald energy   TEWEN  =        58.73490864
  -Hartree energ DENC   =      -455.01445746
  -exchange      EXHF   =         0.00000000
  -V(xc)+E(xc)   XCENC  =        34.56770988
  PAW double counting   =       551.46351696     -553.56669727
  entropy T*S    EENTRO =        -0.00000000
  eigenvalues    EBANDS =      -112.43093073
  atomic energy  EATOM  =       463.21242928
  Solvation  Ediel_sol  =         0.00000000
  ---------------------------------------------------
  free energy    TOTEN  =       -12.80926941 eV

  energy without entropy =      -12.80926941  energy(sigma->0) =      -12.80926941


--------------------------------------------------------------------------------------------------------




----------------------------------------- Iteration    1(  11)  ---------------------------------------


    POTLOK:  cpu time    1.0262: real time    1.0296
    SETDIJ:  cpu time    0.0015: real time    0.0015
    EDDIAG:  cpu time    0.0100: real time    0.0101
  RMM-DIIS:  cpu time    0.0330: real time    0.0331
    ORTHCH:  cpu time    0.0019: real time    0.0019
       DOS:  cpu time    0.0003: real time    0.0003
    CHARGE:  cpu time    0.0119: real time    0.0119
    MIXING:  cpu time    0.0020: real time    0.0020
    --------------------------------------------
      LOOP:  cpu time    1.0878: real time    1.0924

 eigenvalue-minimisations  :    63
 total energy-change (2. order) :-0.9215759E-05  (-0.5557110E-07)
 number of electron       8.0000004 magnetization 
 augmentation part        0.7008508 magnetization 

 Broyden mixing:
  rms(total) = 0.27122E-04    rms(broyden)= 0.27082E-04
  rms(prec ) = 0.37562E-04
  weight for this iteration     100.00

 eigenvalues of (default mixing * dielectric matrix)
  average eigenvalue GAMMA=   2.3518
  7.5459  3.7179  2.6751  2.3125  1.9297  1.0177  1.0177  1.0046  1.0046  1.2926

 Free energy of the ion-electron system (eV)
  ---------------------------------------------------
  alpha Z        PSCENC =         0.22425129
  Ewald energy   TEWEN  =        58.73490864
  -Hartree energ DENC   =      -455.01083545
  -exchange      EXHF   =         0.00000000
  -V(xc)+E(xc)   XCENC  =        34.56751840
  PAW double counting   =       551.45917888     -553.56231625
  entropy T*S    EENTRO =        -0.00000000
  eigenvalues    EBANDS =      -112.43441342
  atomic energy  EATOM  =       463.21242928
  Solvation  Ediel_sol  =         0.00000000
  ---------------------------------------------------
  free energy    TOTEN  =       -12.80927863 eV

  energy without entropy =      -12.80927863  energy(sigma->0) =      -12.80927863


--------------------------------------------------------------------------------------------------------




----------------------------------------- Iteration    1(  12)  ---------------------------------------


    POTLOK:  cpu time    1.0183: real time    1.0217
    SETDIJ:  cpu time    0.0014: real time    0.0014
    EDDIAG:  cpu time    0.0095: real time    0.0096
  RMM-DIIS:  cpu time    0.0513: real time    0.0515
    ORTHCH:  cpu time    0.0020: real time    0.0020
       DOS:  cpu time    0.0001: real time    0.0001
    CHARGE:  cpu time    0.0120: real time    0.0121
    MIXING:  cpu time    0.0017: real time    0.0018
    --------------------------------------------
      LOOP:  cpu time    1.0973: real time    1.1021

 eigenvalue-minimisations  :    79
 total energy-change (2. order) :-0.8186475E-06  (-0.2086100E-08)
 number of electron       8.0000004 magnetization 
 augmentation part        0.7008507 magnetization 

 Broyden mixing:
  rms(total) = 0.21630E-04    rms(broyden)= 0.21628E-04
  rms(prec ) = 0.28714E-04
  weight for this iteration     100.00

 eigenvalues of (default mixing * dielectric matrix)
  average eigenvalue GAMMA=   2.5329
  8.4288  4.7794  2.8430  2.4708  2.4708  1.9054  1.0156  1.0156  0.9818  0.9756
  0.9756

 Free energy of the ion-electron system (eV)
  ---------------------------------------------------
  alpha Z        PSCENC =         0.22425129
  Ewald energy   TEWEN  =        58.73490864
  -Hartree energ DENC   =      -455.01107731
  -exchange      EXHF   =         0.00000000
  -V(xc)+E(xc)   XCENC  =        34.56753125
  PAW double counting   =       551.46001798     -553.56315717
  entropy T*S    EENTRO =        -0.00000000
  eigenvalues    EBANDS =      -112.43418340
  atomic energy  EATOM  =       463.21242928
  Solvation  Ediel_sol  =         0.00000000
  ---------------------------------------------------
  free energy    TOTEN  =       -12.80927944 eV

  energy without entropy =      -12.80927944  energy(sigma->0) =      -12.80927944


--------------------------------------------------------------------------------------------------------




----------------------------------------- Iteration    1(  13)  ---------------------------------------


    POTLOK:  cpu time    1.0269: real time    1.0302
    SETDIJ:  cpu time    0.0017: real time    0.0017
    EDDIAG:  cpu time    0.0105: real time    0.0106
  RMM-DIIS:  cpu time    0.0420: real time    0.0422
    ORTHCH:  cpu time    0.0023: real time    0.0023
       DOS:  cpu time    0.0004: real time    0.0004
    CHARGE:  cpu time    0.0122: real time    0.0122
    MIXING:  cpu time    0.0020: real time    0.0020
    --------------------------------------------
      LOOP:  cpu time    1.0988: real time    1.1036

 eigenvalue-minimisations  :    63
 total energy-change (2. order) :-0.8079118E-06  (-0.3107754E-08)
 number of electron       8.0000004 magnetization 
 augmentation part        0.7008473 magnetization 

 Broyden mixing:
  rms(total) = 0.34394E-05    rms(broyden)= 0.34286E-05
  rms(prec ) = 0.52166E-05
  weight for this iteration     100.00

 eigenvalues of (default mixing * dielectric matrix)
  average eigenvalue GAMMA=   2.5219
  8.6504  5.1222  2.9979  2.5167  2.1272  1.8885  1.8885  1.0146  1.0146  0.9731
  1.0582  1.0108

 Free energy of the ion-electron system (eV)
  ---------------------------------------------------
  alpha Z        PSCENC =         0.22425129
  Ewald energy   TEWEN  =        58.73490864
  -Hartree energ DENC   =      -455.01158419
  -exchange      EXHF   =         0.00000000
  -V(xc)+E(xc)   XCENC  =        34.56756073
  PAW double counting   =       551.46064780     -553.56379362
  entropy T*S    EENTRO =        -0.00000000
  eigenvalues    EBANDS =      -112.43370018
  atomic energy  EATOM  =       463.21242928
  Solvation  Ediel_sol  =         0.00000000
  ---------------------------------------------------
  free energy    TOTEN  =       -12.80928025 eV

  energy without entropy =      -12.80928025  energy(sigma->0) =      -12.80928025


--------------------------------------------------------------------------------------------------------




----------------------------------------- Iteration    1(  14)  ---------------------------------------


    POTLOK:  cpu time    1.0425: real time    1.0458
    SETDIJ:  cpu time    0.0015: real time    0.0015
    EDDIAG:  cpu time    0.0102: real time    0.0102
  RMM-DIIS:  cpu time    0.0480: real time    0.0482
    ORTHCH:  cpu time    0.0020: real time    0.0020
       DOS:  cpu time    0.0003: real time    0.0003
    CHARGE:  cpu time    0.0123: real time    0.0124
    MIXING:  cpu time    0.0022: real time    0.0022
    --------------------------------------------
      LOOP:  cpu time    1.1199: real time    1.1246

 eigenvalue-minimisations  :    66
 total energy-change (2. order) :-0.1083175E-06  (-0.3113421E-09)
 number of electron       8.0000004 magnetization 
 augmentation part        0.7008484 magnetization 

 Broyden mixing:
  rms(total) = 0.55470E-05    rms(broyden)= 0.55464E-05
  rms(prec ) = 0.73551E-05
  weight for this iteration     100.00

 eigenvalues of (default mixing * dielectric matrix)
  average eigenvalue GAMMA=   2.4892
  8.7174  5.3712  3.1801  2.5565  2.3720  2.3720  1.9149  1.0150  1.0150  0.9767
  1.0127  1.0127  0.8429

 Free energy of the ion-electron system (eV)
  ---------------------------------------------------
  alpha Z        PSCENC =         0.22425129
  Ewald energy   TEWEN  =        58.73490864
  -Hartree energ DENC   =      -455.01134614
  -exchange      EXHF   =         0.00000000
  -V(xc)+E(xc)   XCENC  =        34.56754697
  PAW double counting   =       551.45978186     -553.56292410
  entropy T*S    EENTRO =        -0.00000000
  eigenvalues    EBANDS =      -112.43392816
  atomic energy  EATOM  =       463.21242928
  Solvation  Ediel_sol  =         0.00000000
  ---------------------------------------------------
  free energy    TOTEN  =       -12.80928036 eV

  energy without entropy =      -12.80928036  energy(sigma->0) =      -12.80928036


--------------------------------------------------------------------------------------------------------




----------------------------------------- Iteration    1(  15)  ---------------------------------------


    POTLOK:  cpu time    1.0326: real time    1.0360
    SETDIJ:  cpu time    0.0013: real time    0.0013
    EDDIAG:  cpu time    0.0097: real time    0.0098
  RMM-DIIS:  cpu time    0.0423: real time    0.0425
    ORTHCH:  cpu time    0.0019: real time    0.0019
       DOS:  cpu time    0.0001: real time    0.0001
    --------------------------------------------
      LOOP:  cpu time    1.0889: real time    1.0936

 eigenvalue-minimisations  :    66
 total energy-change (2. order) :-0.3624501E-07  (-0.1862261E-09)
 number of electron       8.0000004 magnetization 
 augmentation part        0.7008484 magnetization 

 Free energy of the ion-electron system (eV)
  ---------------------------------------------------
  alpha Z        PSCENC =         0.22425129
  Ewald energy   TEWEN  =        58.73490864
  -Hartree energ DENC   =      -455.01151292
  -exchange      EXHF   =         0.00000000
  -V(xc)+E(xc)   XCENC  =        34.56755651
  PAW double counting   =       551.46010340     -553.56324843
  entropy T*S    EENTRO =        -0.00000000
  eigenvalues    EBANDS =      -112.43376817
  atomic energy  EATOM  =       463.21242928
  Solvation  Ediel_sol  =         0.00000000
  ---------------------------------------------------
  free energy    TOTEN  =       -12.80928040 eV

  energy without entropy =      -12.80928040  energy(sigma->0) =      -12.80928040


--------------------------------------------------------------------------------------------------------




 average (electrostatic) potential at core
  the test charge radii are     0.7215  0.5201
  (the norm of the test charge is              1.0000)
       1 -81.1062       2 -45.8909       3 -45.9636
 
 
 
 E-fermi :  -6.9822     XC(G=0):  -0.6546     alpha+bet : -0.1301


 k-point     1 :       0.0000    0.0000    0.0000
  band No.  band energies     occupation 
      1     -25.7563      2.00000
      2     -13.4973      2.00000
      3      -9.5148      2.00000
      4      -7.4485      2.00000
      5      -1.3810      0.00000
      6       0.4034      0.00000
      7       0.4129      0.00000
      8       0.8685      0.00000
      9       0.9473      0.00000
     10       1.2021      0.00000
     11       1.2782      0.00000
     12       1.9199      0.00000
     13       2.2174      0.00000
     14       2.3219      0.00000
     15       2.3300      0.00000
     16       2.4110      0.00000
     17       2.4782      0.00000
     18       2.5108      0.00000
     19       2.7518      0.00000
     20       2.7846      0.00000
     21       2.8214      0.00000
     22       2.8319      0.00000
     23       2.8415      0.00000
     24       3.7118      0.00000
     25       4.0123      0.00000
     26       4.0421      0.00000
     27       4.0655      0.00000
     28       4.1218      0.00000
     29       4.1283      0.00000
     30       4.1913      0.00000
     31       4.2124      0.00000
     32       4.6441      0.00000


--------------------------------------------------------------------------------------------------------


 soft charge-density along one line, spin component           1
         0         1         2         3         4         5         6         7         8         9
 total charge-density along one line
 
 pseudopotential strength for first ion, spin component:           1
 13.859 -16.992   0.002   0.118   0.000  -0.003  -0.148  -0.000
-16.992  20.864  -0.003  -0.151  -0.000   0.003   0.190   0.000
  0.002  -0.003 -10.608   0.000  -0.000  13.152  -0.000   0.000
  0.118  -0.151   0.000 -10.511  -0.000  -0.000  13.022   0.000
  0.000  -0.000  -0.000  -0.000 -10.378   0.000   0.000  12.844
 -0.003   0.003  13.152  -0.000   0.000 -16.237   0.000  -0.000
 -0.148   0.190  -0.000  13.022   0.000   0.000 -16.061  -0.000
 -0.000   0.000   0.000   0.000  12.844  -0.000  -0.000 -15.820
 total augmentation occupancy for first ion, spin component:           1
  2.736   0.440  -0.010  -0.456   0.000  -0.004  -0.178   0.000
  0.440   0.128  -0.007  -0.430   0.000  -0.001  -0.076   0.000
 -0.010  -0.007   2.427   0.004  -0.000   0.469  -0.000  -0.000
 -0.456  -0.430   0.004   2.298   0.000   0.000   0.323   0.000
  0.000   0.000  -0.000   0.000   2.113  -0.000   0.000   0.122
 -0.004  -0.001   0.469   0.000  -0.000   0.090  -0.000  -0.000
 -0.178  -0.076  -0.000   0.323   0.000  -0.000   0.050   0.000
  0.000   0.000  -0.000   0.000   0.122  -0.000   0.000   0.007


------------------------ aborting loop because EDIFF is reached ----------------------------------------


 


 total charge     
 
# of ion     s       p       d       tot
----------------------------------------
  1        1.576   3.632   0.000   5.208
  2        0.640   0.125   0.000   0.765
  3        0.647   0.130   0.000   0.777
------------------------------------------------
tot        2.863   3.887   0.000   6.750
 
    CHARGE:  cpu time    0.0116: real time    0.0117
    FORLOC:  cpu time    0.0016: real time    0.0017
    FORNL :  cpu time    0.0024: real time    0.0024
    STRESS:  cpu time    0.0319: real time    0.0321
    FORCOR:  cpu time    1.0176: real time    1.0205
    FORHAR:  cpu time    0.0060: real time    0.0061
    MIXING:  cpu time    0.0021: real time    0.0021
    OFIELD:  cpu time    0.0000: real time    0.0000

  FORCE on cell =-STRESS in cart. coord.  units (eV):
  Direction    XX          YY          ZZ          XY          YZ          ZX
  --------------------------------------------------------------------------------------
  Alpha Z     0.22425     0.22425     0.22425
  Ewald     -43.78228    79.49150    23.02565    -0.00000    -0.28165    -0.00000
  Hartree   140.29099   162.26705   152.45360    -0.00000    -0.11728    -0.00000
  E(xc)     -38.61456   -37.69460   -38.08938     0.00000    -0.00352    -0.00000
  Local    -205.23956  -314.14668  -263.67947     0.00000     0.39655     0.00000
  n-local   -31.03443   -30.52532   -31.27808     0.00000    -0.04154    -0.00000
  augment     8.18476     5.80280     6.80303     0.00000     0.00707     0.00000
  Kinetic   169.89516   134.67045   150.57683     0.00000     0.18784     0.00000
  Fock        0.00000     0.00000     0.00000     0.00000     0.00000     0.00000
  -------------------------------------------------------------------------------------
  Total      -0.07566     0.08946     0.03643     0.00000     0.14746     0.00000
  in kB      -0.12123     0.14333     0.05837     0.00000     0.23626     0.00000
  external pressure =        0.03 kB  Pullay stress =        0.00 kB


 VOLUME and BASIS-vectors are now :
 -----------------------------------------------------------------------------
  energy-cutoff  :      500.00
  volume of cell :     1000.00
      direct lattice vectors                 reciprocal lattice vectors
    10.000000000  0.000000000  0.000000000     0.100000000  0.000000000  0.000000000
     0.000000000 10.000000000  0.000000000     0.000000000  0.100000000  0.000000000
     0.000000000  0.000000000 10.000000000     0.000000000  0.000000000  0.100000000

  length of vectors
    10.000000000 10.000000000 10.000000000     0.100000000  0.100000000  0.100000000


 FORCES acting on ions
    electron-ion (+dipol)            ewald-force                    non-local-force                 convergence-correction
 -----------------------------------------------------------------------------------------------
   -.123E-07 -.111E+01 -.635E+02   0.258E-16 0.202E+01 0.113E+03   -.216E-07 -.653E+00 -.494E+02   0.525E-07 -.249E-05 -.767E-04
   -.328E-09 -.719E+02 0.519E+02   0.209E-16 0.789E+02 -.570E+02   -.105E-09 -.700E+01 0.508E+01   0.313E-08 0.444E-05 -.879E-05
   -.678E-09 0.734E+02 0.509E+02   0.366E-17 -.809E+02 -.562E+02   -.546E-09 0.725E+01 0.506E+01   0.327E-08 -.507E-05 -.945E-05
 -----------------------------------------------------------------------------------------------
   -.133E-07 0.403E+00 0.393E+02   0.503E-16 0.000E+00 0.000E+00   -.222E-07 -.404E+00 -.393E+02   0.589E-07 -.312E-05 -.949E-04
 
 
 POSITION                                       TOTAL-FORCE (eV/Angst)
 -----------------------------------------------------------------------------------
      5.00000      5.00215      5.39683         0.000000      0.254742      0.212168
      5.00000      5.76228      4.80241        -0.000000     -0.029864     -0.010148
      5.00000      4.23557      4.82076        -0.000000     -0.224879     -0.202020
 -----------------------------------------------------------------------------------
    total drift:                                0.000000     -0.000277     -0.001081


--------------------------------------------------------------------------------------------------------



  FREE ENERGIE OF THE ION-ELECTRON SYSTEM (eV)
  ---------------------------------------------------
  free  energy   TOTEN  =       -12.80928040 eV

  energy  without entropy=      -12.80928040  energy(sigma->0) =      -12.80928040
 


--------------------------------------------------------------------------------------------------------


    POTLOK:  cpu time    1.0256: real time    1.0287


--------------------------------------------------------------------------------------------------------


 writing wavefunctions
     LOOP+:  cpu time   19.7406: real time   19.8352
    4ORBIT:  cpu time    0.0000: real time    0.0000
 


 total charge     
 
# of ion     s       p       d       tot
----------------------------------------
  1        1.576   3.632   0.000   5.208
  2        0.640   0.125   0.000   0.765
  3        0.647   0.130   0.000   0.777
------------------------------------------------
tot        2.863   3.887   0.000   6.750
 

 total amount of memory used by VASP on root node    44757. kBytes
========================================================================

   base      :      30000. kBytes
   nonl-proj :       2241. kBytes
   fftplans  :       2388. kBytes
   grid      :       9920. kBytes
   one-center:          4. kBytes
   wavefun   :        204. kBytes
 
  
  
 General timing and accounting informations for this job:
 ========================================================
  
                  Total CPU time used (sec):       21.364
                            User time (sec):       20.401
                          System time (sec):        0.963
                         Elapsed time (sec):       21.731
  
                   Maximum memory used (kb):      257100.
                   Average memory used (kb):           0.
  
                          Minor page faults:       249041
                          Major page faults:            0
                 Voluntary context switches:         2082
