    #         X           Y           Z       CHARGE      MIN DIST   ATOMIC VOL
 --------------------------------------------------------------------------------
    1    5.000000    5.002150    5.396830    7.999880     2.718259   727.414501
    2    5.000000    5.762280    4.802410    0.000089     2.184231   141.844991
    3    5.000000    4.235570    4.820760    0.000032     2.181999   130.740508
 --------------------------------------------------------------------------------
    VACUUM CHARGE:               0.0000
    VACUUM VOLUME:               0.0000
    NUMBER OF ELECTRONS:         8.0000
