    #         X           Y           Z       CHARGE      MIN DIST   ATOMIC VOL
 --------------------------------------------------------------------------------
    1    5.200060    5.000000    4.996600    2.216541     0.021756   436.991077
    2    5.199940    5.000000    3.864740    7.783459     1.046193   563.008923
 --------------------------------------------------------------------------------
    VACUUM CHARGE:               0.0000
    VACUUM VOLUME:               0.0000
    NUMBER OF ELECTRONS:        10.0000
