 vasp.5.4.1 05Feb16 (build Aug 29 2016 09:43:08) gamma-only                     
  
 executed on           IFC91_ompi date 2023.10.12  20:23:32
 running on   32 total cores
 distrk:  each k-point on   32 cores,    1 groups
 distr:  one band on NCORES_PER_BAND=   1 cores,   32 groups


--------------------------------------------------------------------------------------------------------


 INCAR:
 POTCAR:    PAW_PBE C 08Apr2002                   
 POTCAR:    PAW_PBE O 08Apr2002                   

 ----------------------------------------------------------------------------- 
|                                                                             |
|           W    W    AA    RRRRR   N    N  II  N    N   GGGG   !!!           |
|           W    W   A  A   R    R  NN   N  II  NN   N  G    G  !!!           |
|           W    W  A    A  R    R  N N  N  II  N N  N  G       !!!           |
|           W WW W  AAAAAA  RRRRR   N  N N  II  N  N N  G  GGG   !            |
|           WW  WW  A    A  R   R   N   NN  II  N   NN  G    G                |
|           W    W  A    A  R    R  N    N  II  N    N   GGGG   !!!           |
|                                                                             |
|      For optimal performance we recommend to set                            |
|        NCORE= 4 - approx SQRT( number of cores)                             |
|      NCORE specifies how many cores store one orbital (NPAR=cpu/NCORE).     |
|      This setting can  greatly improve the performance of VASP for DFT.     |
|      The default, NPAR=number of cores might be grossly inefficient         |
|      on modern multi-core architectures or massively parallel machines.     |
|      Do your own testing !!!!                                               |
|      Unfortunately you need to use the default for GW and RPA calculations. |
|      (for HF NCORE is supported but not extensively tested yet)             |
|                                                                             |
 ----------------------------------------------------------------------------- 


 ----------------------------------------------------------------------------- 
|                                                                             |
|  ADVICE TO THIS USER RUNNING 'VASP/VAMP'   (HEAR YOUR MASTER'S VOICE ...):  |
|                                                                             |
|      You have switched on vdW-DFT.                                          |
|      This routine was written and supplied by Jiri Klimes.                  |
|      We recommed that you carefully read and cite the following             |
|      publication                                                            |
|      J. Klimes, D.R. Bowler, A. Michelides                                  |
|        J. Phys.: Cond Matt. 22 022201 (2010)                                |
|      J. Klimes, D.R. Bowler, A. Michelides                                  |
|        Phys. Rev. B. 83, 195131 (2011)                                      |
|      and references therein.                                                |
|                                                                             |
 ----------------------------------------------------------------------------- 

 POTCAR:    PAW_PBE C 08Apr2002                   
   VRHFIN =C: s2p2                                                              
   LEXCH  = PE                                                                  
   EATOM  =   147.1560 eV,   10.8157 Ry                                         
                                                                                
   TITEL  = PAW_PBE C 08Apr2002                                                 
   LULTRA =        F    use ultrasoft PP ?                                      
   IUNSCR =        1    unscreen: 0-lin 1-nonlin 2-no                           
   RPACOR =    1.200    partial core radius                                     
   POMASS =   12.011; ZVAL   =    4.000    mass and valenz                      
   RCORE  =    1.500    outmost cutoff radius                                   
   RWIGS  =    1.630; RWIGS  =    0.863    wigner-seitz radius (au A)           
   ENMAX  =  400.000; ENMIN  =  300.000 eV                                      
   ICORE  =        2    local potential                                         
   LCOR   =        T    correct aug charges                                     
   LPAW   =        T    paw PP                                                  
   EAUG   =  644.873                                                            
   DEXC   =    0.000                                                            
   RMAX   =    1.529    core radius for proj-oper                               
   RAUG   =    1.300    factor for augmentation sphere                          
   RDEP   =    1.501    radius for radial grids                                 
   RDEPT  =    1.300    core radius for aug-charge                              
                                                                                
   Atomic configuration                                                         
    4 entries                                                                   
     n  l   j            E        occ.                                          
     1  0  0.50      -273.3789   2.0000                                         
     2  0  0.50       -13.7508   2.0000                                         
     2  1  0.50        -5.2854   2.0000                                         
     3  2  1.50        -5.4423   0.0000                                         
   Description                                                                  
     l       E           TYP  RCUT    TYP  RCUT                                 
     0    -13.7508458     23  1.200                                             
     0     -8.2022199     23  1.200                                             
     1     -5.2854383     23  1.500                                             
     1     34.0145650     23  1.500                                             
     2     -5.4423304      7  1.500                                             
  local pseudopotential read in
  partial core-charges read in
  partial kinetic energy density read in
  atomic valenz-charges read in
  non local Contribution for L=           0  read in
    real space projection operators read in
  non local Contribution for L=           0  read in
    real space projection operators read in
  non local Contribution for L=           1  read in
    real space projection operators read in
  non local Contribution for L=           1  read in
    real space projection operators read in
    PAW grid and wavefunctions read in
 
   number of l-projection  operators is LMAX  =           4
   number of lm-projection operators is LMMAX =           8
 
 POTCAR:    PAW_PBE O 08Apr2002                   
   VRHFIN =O: s2p4                                                              
   LEXCH  = PE                                                                  
   EATOM  =   432.3788 eV,   31.7789 Ry                                         
                                                                                
   TITEL  = PAW_PBE O 08Apr2002                                                 
   LULTRA =        F    use ultrasoft PP ?                                      
   IUNSCR =        1    unscreen: 0-lin 1-nonlin 2-no                           
   RPACOR =    1.200    partial core radius                                     
   POMASS =   16.000; ZVAL   =    6.000    mass and valenz                      
   RCORE  =    1.520    outmost cutoff radius                                   
   RWIGS  =    1.550; RWIGS  =    0.820    wigner-seitz radius (au A)           
   ENMAX  =  400.000; ENMIN  =  300.000 eV                                      
   ICORE  =        2    local potential                                         
   LCOR   =        T    correct aug charges                                     
   LPAW   =        T    paw PP                                                  
   EAUG   =  605.392                                                            
   DEXC   =    0.000                                                            
   RMAX   =    1.553    core radius for proj-oper                               
   RAUG   =    1.300    factor for augmentation sphere                          
   RDEP   =    1.550    radius for radial grids                                 
   RDEPT  =    1.329    core radius for aug-charge                              
                                                                                
   Atomic configuration                                                         
    4 entries                                                                   
     n  l   j            E        occ.                                          
     1  0  0.50      -514.6923   2.0000                                         
     2  0  0.50       -23.9615   2.0000                                         
     2  1  0.50        -9.0305   4.0000                                         
     3  2  1.50        -9.5241   0.0000                                         
   Description                                                                  
     l       E           TYP  RCUT    TYP  RCUT                                 
     0    -23.9615318     23  1.200                                             
     0     -9.5240782     23  1.200                                             
     1     -9.0304911     23  1.520                                             
     1      8.1634956     23  1.520                                             
     2     -9.5240782      7  1.500                                             
  local pseudopotential read in
  partial core-charges read in
  partial kinetic energy density read in
  kinetic energy density of atom read in
  atomic valenz-charges read in
  non local Contribution for L=           0  read in
    real space projection operators read in
  non local Contribution for L=           0  read in
    real space projection operators read in
  non local Contribution for L=           1  read in
    real space projection operators read in
  non local Contribution for L=           1  read in
    real space projection operators read in
    PAW grid and wavefunctions read in
 
   number of l-projection  operators is LMAX  =           4
   number of lm-projection operators is LMMAX =           8
 

 ----------------------------------------------------------------------------- 
|                                                                             |
|  ADVICE TO THIS USER RUNNING 'VASP/VAMP'   (HEAR YOUR MASTER'S VOICE ...):  |
|                                                                             |
|      You enforced a specific xc-type in the INCAR file,                     |
|      a different type was found on the POTCAR file                          |
|          I HOPE YOU KNOW, WHAT YOU ARE  DOING                               |
|                                                                             |
 ----------------------------------------------------------------------------- 

  PAW_PBE C 08Apr2002                   :
 energy of atom  1       EATOM= -147.1560
 kinetic energy error for atom=    0.0076 (will be added to EATOM!!)
  PAW_PBE O 08Apr2002                   :
 energy of atom  2       EATOM= -432.3788
 kinetic energy error for atom=    0.0224 (will be added to EATOM!!)
 
 
 POSCAR:  C  O                                   
  positions in cartesian coordinates
  No initial velocities read in
 exchange correlation table for  LEXCH =       17
   RHO(1)=    0.500       N(1)  =     2000
   RHO(2)=  100.500       N(2)  =     4000
 


--------------------------------------------------------------------------------------------------------


 ion  position               nearest neighbor table
   1  0.520  0.500  0.500-   2 1.13
   2  0.520  0.500  0.386-   1 1.13
 

IMPORTANT INFORMATION: All symmetrisations will be switched off!
NOSYMM: (Re-)initialisation of all symmetry stuff for point group C_1.

 
 
 KPOINTS: KPOINTS created by Atomic Simulation Env

Automatic generation of k-mesh.
Space group operators:
 irot       det(A)        alpha          n_x          n_y          n_z        tau_x        tau_y        tau_z
    1     1.000000     0.000000     1.000000     0.000000     0.000000     0.000000     0.000000     0.000000
 
 Subroutine IBZKPT returns following result:
 ===========================================
 
 Found      1 irreducible k-points:
 
 Following reciprocal coordinates:
            Coordinates               Weight
  0.000000  0.000000  0.000000      1.000000
 
 Following cartesian coordinates:
            Coordinates               Weight
  0.000000  0.000000  0.000000      1.000000
 


--------------------------------------------------------------------------------------------------------




 Dimension of arrays:
   k-points           NKPTS =      1   k-points in BZ     NKDIM =      1   number of bands    NBANDS=     32
   number of dos      NEDOS =    301   number of ions     NIONS =      2
   non local maximal  LDIM  =      4   non local SUM 2l+1 LMDIM =      8
   total plane-waves  NPLWV = 175616
   max r-space proj   IRMAX =      1   max aug-charges    IRDMAX=   2478
   dimension x,y,z NGX =    56 NGY =   56 NGZ =   56
   dimension x,y,z NGXF=   112 NGYF=  112 NGZF=  112
   support grid    NGXF=   112 NGYF=  112 NGZF=  112
   ions per type =               1   1
 NGX,Y,Z   is equivalent  to a cutoff of   9.31,  9.31,  9.31 a.u.
 NGXF,Y,Z  is equivalent  to a cutoff of  18.62, 18.62, 18.62 a.u.


 I would recommend the setting:
   dimension x,y,z NGX =    55 NGY =   55 NGZ =   55
 SYSTEM =  unknown system                          
 POSCAR =   C  O                                   

 Startparameter for this run:
   NWRITE =      2    write-flag & timer
   PREC   = normal    normal or accurate (medium, high low for compatibility)
   ISTART =      1    job   : 0-new  1-cont  2-samecut
   ICHARG =      0    charge: 1-file 2-atom 10-const
   ISPIN  =      2    spin polarized calculation?
   LNONCOLLINEAR =      F non collinear calculations
   LSORBIT =      F    spin-orbit coupling
   INIWAV =      1    electr: 0-lowe 1-rand  2-diag
   LASPH  =      F    aspherical Exc in radial PAW
   METAGGA=      F    non-selfconsistent MetaGGA calc.

 Electronic Relaxation 1
   ENCUT  =  500.0 eV  36.75 Ry    6.06 a.u.  18.23 18.23 18.23*2*pi/ulx,y,z
   ENINI  =  500.0     initial cutoff
   ENAUG  =  644.9 eV  augmentation charge cutoff
   NELM   =    450;   NELMIN=  2; NELMDL=  0     # of ELM steps 
   EDIFF  = 0.1E-06   stopping-criterion for ELM
   LREAL  =      F    real-space projection
   NLSPLINE    = F    spline interpolate recip. space projectors
   LCOMPAT=      F    compatible to vasp.4.4
   GGA_COMPAT  = T    GGA compatible to vasp.4.4-vasp.4.6
   LMAXPAW     = -100 max onsite density
   LMAXMIX     =    2 max onsite mixed and CHGCAR
   VOSKOWN=      0    Vosko Wilk Nusair interpolation
   ROPT   =    0.00000   0.00000
 Ionic relaxation
   EDIFFG = -.1E-01   stopping-criterion for IOM
   NSW    =      1    number of steps for IOM
   NBLOCK =      1;   KBLOCK =      1    inner block; outer block 
   IBRION =     -1    ionic relax: 0-MD 1-quasi-New 2-CG
   NFREE  =      0    steps in history (QN), initial steepest desc. (CG)
   ISIF   =      2    stress and relaxation
   IWAVPR =     10    prediction:  0-non 1-charg 2-wave 3-comb
   ISYM   =      0    0-nonsym 1-usesym 2-fastsym
   LCORR  =      T    Harris-Foulkes like correction to forces

   POTIM  = 0.5000    time-step for ionic-motion
   TEIN   =    0.0    initial temperature
   TEBEG  =    0.0;   TEEND  =   0.0 temperature during run
   SMASS  =  -3.00    Nose mass-parameter (am)
   estimated Nose-frequenzy (Omega)   =  0.10E-29 period in steps =****** mass=  -0.229E-26a.u.
   SCALEE = 1.0000    scale energy and forces
   NPACO  =    256;   APACO  = 16.0  distance and # of slots for P.C.
   PSTRESS=    0.0 pullay stress

  Mass of Ions in am
   POMASS =  12.01 16.00
  Ionic Valenz
   ZVAL   =   4.00  6.00
  Atomic Wigner-Seitz radii
   RWIGS  =  -1.00 -1.00
  virtual crystal weights 
   VCA    =   1.00  1.00
   NELECT =      10.0000    total number of electrons
   NUPDOWN=      -1.0000    fix difference up-down

 DOS related values:
   EMIN   =  10.00;   EMAX   =-10.00  energy-range for DOS
   EFERMI =   0.00
   ISMEAR =     1;   SIGMA  =   0.10  broadening in eV -4-tet -1-fermi 0-gaus

 Electronic relaxation 2 (details)
   IALGO  =     68    algorithm
   LDIAG  =      T    sub-space diagonalisation (order eigenvalues)
   LSUBROT=      F    optimize rotation matrix (better conditioning)
   TURBO    =      0    0=normal 1=particle mesh
   IRESTART =      0    0=no restart 2=restart with 2 vectors
   NREBOOT  =      0    no. of reboots
   NMIN     =      0    reboot dimension
   EREF     =   0.00    reference energy to select bands
   IMIX   =      4    mixing-type and parameters
     AMIX     =   0.40;   BMIX     =  1.00
     AMIX_MAG =   1.60;   BMIX_MAG =  1.00
     AMIN     =   0.10
     WC   =   100.;   INIMIX=   1;  MIXPRE=   1;  MAXMIX= -45

 Intra band minimization:
   WEIMIN = 0.0000     energy-eigenvalue tresh-hold
   EBREAK =  0.78E-09  absolut break condition
   DEPER  =   0.30     relativ break condition  

   TIME   =   0.40     timestep for ELM

  volume/ion in A,a.u.               =     500.00      3374.17
  Fermi-wavevector in a.u.,A,eV,Ry     =   0.352702  0.666511  1.692549  0.124399
  Thomas-Fermi vector in A             =   1.266362
 
 Write flags
   LWAVE  =      T    write WAVECAR
   LCHARG =      T    write CHGCAR
   LVTOT  =      F    write LOCPOT, total local potential
   LVHAR  =      F    write LOCPOT, Hartree potential only
   LELF   =      F    write electronic localiz. function (ELF)
   LORBIT =     11    0 simple, 1 ext, 2 COOP (PROOUT)


 Dipole corrections
   LMONO  =      F    monopole corrections only (constant potential shift)
   LDIPOL =      F    correct potential (dipole corrections)
   IDIPOL =      0    1-x, 2-y, 3-z, 4-all directions 
   EPSILON=  1.0000000 bulk dielectric constant

 Exchange correlation treatment:
   GGA     =    BF    GGA type
   LEXCH   =    17    internal setting for exchange type
   VOSKOWN=      0    Vosko Wilk Nusair interpolation
   LHFCALC =     F    Hartree Fock is set to
   LHFONE  =     F    Hartree Fock one center treatment
   AEXX    =    0.0000 exact exchange contribution

 vdW DFT:
   LUSE_VDW   =     T    switch on vdW DFT
   Zab_VDW    =******    correlation parameter
   PARAM1     =0.1234
   PARAM2     =1.0000
   PARAM3     =0.0000

 Linear response parameters
   LEPSILON=     F    determine dielectric tensor
   LRPA    =     F    only Hartree local field effects (RPA)
   LNABLA  =     F    use nabla operator in PAW spheres
   LVEL    =     F    velocity operator in full k-point grid
   LINTERFAST=   F  fast interpolation
   KINTER  =     0    interpolate to denser k-point grid
   CSHIFT  =0.1000    complex shift for real part using Kramers Kronig
   OMEGAMAX=  -1.0    maximum frequency
   DEG_THRESHOLD= 0.2000000E-02 threshold for treating states as degnerate
   RTIME   =    0.100 relaxation time in fs

 Orbital magnetization related:
   ORBITALMAG=     F  switch on orbital magnetization
   LCHIMAG   =     F  perturbation theory with respect to B field
   DQ        =  0.001000  dq finite difference perturbation B field



--------------------------------------------------------------------------------------------------------


 Static calculation
 charge density and potential will be updated during run
 spin polarized calculation
 RMM-DIIS sequential band-by-band and
  variant of blocked Davidson during initial phase
 perform sub-space diagonalisation
    before iterative eigenvector-optimisation
 modified Broyden-mixing scheme, WC =      100.0
 initial mixing is a Kerker type mixing with AMIX =  0.4000 and BMIX =      1.0000
 Hartree-type preconditioning will be used
 using additional bands           27
 reciprocal scheme for non local part
 use partial core corrections
 calculate Harris-corrections to forces 
   (improved forces if not selfconsistent)
 use gradient corrections 
 use of overlap-Matrix (Vanderbilt PP)
 Methfessel and Paxton  Order N= 1 SIGMA  =   0.10


--------------------------------------------------------------------------------------------------------


  energy-cutoff  :      500.00
  volume of cell :     1000.00
      direct lattice vectors                 reciprocal lattice vectors
    10.000000000  0.000000000  0.000000000     0.100000000  0.000000000  0.000000000
     0.000000000 10.000000000  0.000000000     0.000000000  0.100000000  0.000000000
     0.000000000  0.000000000 10.000000000     0.000000000  0.000000000  0.100000000

  length of vectors
    10.000000000 10.000000000 10.000000000     0.100000000  0.100000000  0.100000000


 
 old parameters found on file WAVECAR:
  energy-cutoff  :      500.00
  volume of cell :     1000.00
      direct lattice vectors                 reciprocal lattice vectors
    10.000000000  0.000000000  0.000000000     0.100000000  0.000000000  0.000000000
     0.000000000 10.000000000  0.000000000     0.000000000  0.100000000  0.000000000
     0.000000000  0.000000000 10.000000000     0.000000000  0.000000000  0.100000000

  length of vectors

 
 k-points in units of 2pi/SCALE and weight: KPOINTS created by Atomic Simulation Env
   0.00000000  0.00000000  0.00000000       1.000
 
 k-points in reciprocal lattice and weights: KPOINTS created by Atomic Simulation Env
   0.00000000  0.00000000  0.00000000       1.000
 
 position of ions in fractional coordinates (direct lattice) 
   0.52000616  0.50000000  0.49966043
   0.51999384  0.50000000  0.38647377
 
 position of ions in cartesian coordinates  (Angst):
   5.20006157  5.00000000  4.99660426
   5.19993843  5.00000000  3.86473774
 


--------------------------------------------------------------------------------------------------------


 use seriel FFT for wavefunctions x direction half grid
 k-point  1 :   0.0000 0.0000 0.0000  plane waves:   12707

 maximum and minimum number of plane-waves per node :     12707    12707

 maximum number of plane-waves:     12707
 maximum index in each direction: 
   IXMAX=   18   IYMAX=   18   IZMAX=   18
   IXMIN=    0   IYMIN=  -18   IZMIN=  -18

 WARNING: aliasing errors must be expected set NGX to  74 to avoid them
 WARNING: aliasing errors must be expected set NGY to  74 to avoid them
 WARNING: aliasing errors must be expected set NGZ to  74 to avoid them
 aliasing errors are usually negligible using standard VASP settings
 and one can safely disregard these warnings

 serial   3D FFT for wavefunctions
 parallel 3D FFT for charge:
    minimum data exchange during FFTs selected (reduces bandwidth)


 total amount of memory used by VASP on root node    53060. kBytes
========================================================================

   base      :      30000. kBytes
   nonl-proj :       2037. kBytes
   fftplans  :       2388. kBytes
   grid      :      18221. kBytes
   one-center:          6. kBytes
   wavefun   :        408. kBytes
 
     INWAV:  cpu time    0.0574: real time    0.0576
 Broyden mixing: mesh for mixing (old mesh)
   NGX = 37   NGY = 37   NGZ = 37
  (NGX  =112   NGY  =112   NGZ  =112)
  gives a total of  50653 points

 charge density for first step will be calculated from the start-wavefunctions


--------------------------------------------------------------------------------------------------------


 Maximum index for augmentation-charges          101 (set IRDMAX)


--------------------------------------------------------------------------------------------------------


 initial charge from wavefunction
 First call to EWALD:  gamma=   0.177
 Maximum number of real-space cells 3x 3x 3
 Maximum number of reciprocal cells 3x 3x 3

 FEWALD executed in parallel
    FEWALD:  cpu time    0.0015: real time    0.0015


----------------------------------------- Iteration    1(   1)  ---------------------------------------


vdW kernel read from vdw_kernel.bindat
  0.0000  0.2424  0.5071  0.7962  1.1119  1.4567  1.8333  2.2446  2.6937  3.1842
  3.7199  4.3049  4.9438  5.6415  6.4036  7.2358  8.1446  9.1372 10.2212 11.4050
 12.6979 14.1099 15.6519 17.3360 19.1751 21.1837 23.3773 25.7729 28.3892 31.2465
 34.3669 37.7748 41.4965 45.5611 50.0000
 
    POTLOK:  cpu time    1.3901: real time    1.3942
    SETDIJ:  cpu time    0.0047: real time    0.0048
     EDDAV:  cpu time    0.0672: real time    0.0675
       DOS:  cpu time    0.0007: real time    0.0007
    CHARGE:  cpu time    0.0229: real time    0.0230
    MIXING:  cpu time    0.0019: real time    0.0019
    --------------------------------------------
      LOOP:  cpu time    1.4890: real time    1.4944

 eigenvalue-minimisations  :   128
 total energy-change (2. order) :-0.1220142E+02  (-0.4395315E+00)
 number of electron       9.9999999 magnetization      -0.0419716
 augmentation part        0.6427251 magnetization      -0.0015614

 Broyden mixing:
  rms(total) = 0.19566E+00    rms(broyden)= 0.19553E+00
  rms(prec ) = 0.27358E+00
  weight for this iteration     100.00

 Free energy of the ion-electron system (eV)
  ---------------------------------------------------
  alpha Z        PSCENC =         0.43695755
  Ewald energy   TEWEN  =       101.99440654
  -Hartree energ DENC   =      -583.58013112
  -exchange      EXHF   =         0.00000000
  -V(xc)+E(xc)   XCENC  =        41.03214234
  PAW double counting   =       873.80184697     -876.64298788
  entropy T*S    EENTRO =         0.00539651
  eigenvalues    EBANDS =      -156.58491121
  atomic energy  EATOM  =       587.33585529
  Solvation  Ediel_sol  =         0.00000000
  ---------------------------------------------------
  free energy    TOTEN  =       -12.20142500 eV

  energy without entropy =      -12.20682151  energy(sigma->0) =      -12.20322383


--------------------------------------------------------------------------------------------------------




----------------------------------------- Iteration    1(   2)  ---------------------------------------


    POTLOK:  cpu time    1.1249: real time    1.1280
    SETDIJ:  cpu time    0.0041: real time    0.0041
    EDDIAG:  cpu time    0.0216: real time    0.0218
  RMM-DIIS:  cpu time    0.0762: real time    0.0766
    ORTHCH:  cpu time    0.0026: real time    0.0026
       DOS:  cpu time    0.0004: real time    0.0004
    CHARGE:  cpu time    0.0207: real time    0.0208
    MIXING:  cpu time    0.0020: real time    0.0020
    --------------------------------------------
      LOOP:  cpu time    1.2537: real time    1.2589

 eigenvalue-minimisations  :   134
 total energy-change (2. order) : 0.1152913E+00  (-0.2522933E-01)
 number of electron      10.0000000 magnetization      -0.0411878
 augmentation part        0.6746754 magnetization      -0.0027738

 Broyden mixing:
  rms(total) = 0.10212E+00    rms(broyden)= 0.10204E+00
  rms(prec ) = 0.12821E+00
  weight for this iteration     100.00

 eigenvalues of (default mixing * dielectric matrix)
  average eigenvalue GAMMA=   0.8018
  0.8018

 Free energy of the ion-electron system (eV)
  ---------------------------------------------------
  alpha Z        PSCENC =         0.43695755
  Ewald energy   TEWEN  =       101.99440654
  -Hartree energ DENC   =      -583.30175185
  -exchange      EXHF   =         0.00000000
  -V(xc)+E(xc)   XCENC  =        41.00271963
  PAW double counting   =       882.01420880     -884.79885553
  entropy T*S    EENTRO =         0.00528559
  eigenvalues    EBANDS =      -156.77495970
  atomic energy  EATOM  =       587.33585529
  Solvation  Ediel_sol  =         0.00000000
  ---------------------------------------------------
  free energy    TOTEN  =       -12.08613367 eV

  energy without entropy =      -12.09141926  energy(sigma->0) =      -12.08789554


--------------------------------------------------------------------------------------------------------




----------------------------------------- Iteration    1(   3)  ---------------------------------------


    POTLOK:  cpu time    1.1109: real time    1.1144
    SETDIJ:  cpu time    0.0042: real time    0.0042
    EDDIAG:  cpu time    0.0173: real time    0.0174
  RMM-DIIS:  cpu time    0.0791: real time    0.0794
    ORTHCH:  cpu time    0.0027: real time    0.0027
       DOS:  cpu time    0.0003: real time    0.0003
    CHARGE:  cpu time    0.0206: real time    0.0207
    MIXING:  cpu time    0.0018: real time    0.0018
    --------------------------------------------
      LOOP:  cpu time    1.2380: real time    1.2438

 eigenvalue-minimisations  :   151
 total energy-change (2. order) : 0.2264434E-01  (-0.2954052E-02)
 number of electron      10.0000000 magnetization      -0.0434453
 augmentation part        0.6660550 magnetization      -0.0011256

 Broyden mixing:
  rms(total) = 0.43632E-01    rms(broyden)= 0.43626E-01
  rms(prec ) = 0.57465E-01
  weight for this iteration     100.00

 eigenvalues of (default mixing * dielectric matrix)
  average eigenvalue GAMMA=   1.3410
  0.7891  1.8929

 Free energy of the ion-electron system (eV)
  ---------------------------------------------------
  alpha Z        PSCENC =         0.43695755
  Ewald energy   TEWEN  =       101.99440654
  -Hartree energ DENC   =      -585.10601321
  -exchange      EXHF   =         0.00000000
  -V(xc)+E(xc)   XCENC  =        41.08988929
  PAW double counting   =       887.12357127     -889.92351163
  entropy T*S    EENTRO =         0.00546869
  eigenvalues    EBANDS =      -155.02011312
  atomic energy  EATOM  =       587.33585529
  Solvation  Ediel_sol  =         0.00000000
  ---------------------------------------------------
  free energy    TOTEN  =       -12.06348934 eV

  energy without entropy =      -12.06895803  energy(sigma->0) =      -12.06531223


--------------------------------------------------------------------------------------------------------




----------------------------------------- Iteration    1(   4)  ---------------------------------------


    POTLOK:  cpu time    1.1191: real time    1.1226
    SETDIJ:  cpu time    0.0040: real time    0.0040
    EDDIAG:  cpu time    0.0201: real time    0.0201
  RMM-DIIS:  cpu time    0.0789: real time    0.0792
    ORTHCH:  cpu time    0.0033: real time    0.0033
       DOS:  cpu time    0.0007: real time    0.0007
    CHARGE:  cpu time    0.0228: real time    0.0228
    MIXING:  cpu time    0.0019: real time    0.0019
    --------------------------------------------
      LOOP:  cpu time    1.2516: real time    1.2574

 eigenvalue-minimisations  :   140
 total energy-change (2. order) : 0.7585826E-02  (-0.2519402E-02)
 number of electron      10.0000000 magnetization      -0.0379755
 augmentation part        0.6645950 magnetization      -0.0113454

 Broyden mixing:
  rms(total) = 0.14459E-01    rms(broyden)= 0.14449E-01
  rms(prec ) = 0.18850E-01
  weight for this iteration     100.00

 eigenvalues of (default mixing * dielectric matrix)
  average eigenvalue GAMMA=   1.0351
  1.9231  0.7764  0.4058

 Free energy of the ion-electron system (eV)
  ---------------------------------------------------
  alpha Z        PSCENC =         0.43695755
  Ewald energy   TEWEN  =       101.99440654
  -Hartree energ DENC   =      -586.32735319
  -exchange      EXHF   =         0.00000000
  -V(xc)+E(xc)   XCENC  =        41.14307265
  PAW double counting   =       892.84737112     -895.64663792
  entropy T*S    EENTRO =         0.00469095
  eigenvalues    EBANDS =      -153.84426651
  atomic energy  EATOM  =       587.33585529
  Solvation  Ediel_sol  =         0.00000000
  ---------------------------------------------------
  free energy    TOTEN  =       -12.05590351 eV

  energy without entropy =      -12.06059446  energy(sigma->0) =      -12.05746716


--------------------------------------------------------------------------------------------------------




----------------------------------------- Iteration    1(   5)  ---------------------------------------


    POTLOK:  cpu time    1.1207: real time    1.1239
    SETDIJ:  cpu time    0.0049: real time    0.0050
    EDDIAG:  cpu time    0.0184: real time    0.0185
  RMM-DIIS:  cpu time    0.0686: real time    0.0689
    ORTHCH:  cpu time    0.0028: real time    0.0028
       DOS:  cpu time    0.0004: real time    0.0004
    CHARGE:  cpu time    0.0212: real time    0.0213
    MIXING:  cpu time    0.0020: real time    0.0020
    --------------------------------------------
      LOOP:  cpu time    1.2401: real time    1.2459

 eigenvalue-minimisations  :   139
 total energy-change (2. order) : 0.2184850E-03  (-0.6736096E-04)
 number of electron      10.0000000 magnetization      -0.0417219
 augmentation part        0.6654472 magnetization       0.0194260

 Broyden mixing:
  rms(total) = 0.17883E-01    rms(broyden)= 0.17876E-01
  rms(prec ) = 0.19921E-01
  weight for this iteration     100.00

 eigenvalues of (default mixing * dielectric matrix)
  average eigenvalue GAMMA=   1.1137
  1.9137  1.4349  0.8132  0.2929

 Free energy of the ion-electron system (eV)
  ---------------------------------------------------
  alpha Z        PSCENC =         0.43695755
  Ewald energy   TEWEN  =       101.99440654
  -Hartree energ DENC   =      -586.22752347
  -exchange      EXHF   =         0.00000000
  -V(xc)+E(xc)   XCENC  =        41.13639964
  PAW double counting   =       893.10724768     -895.90502309
  entropy T*S    EENTRO =         0.00623110
  eigenvalues    EBANDS =      -153.94023628
  atomic energy  EATOM  =       587.33585529
  Solvation  Ediel_sol  =         0.00000000
  ---------------------------------------------------
  free energy    TOTEN  =       -12.05568503 eV

  energy without entropy =      -12.06191613  energy(sigma->0) =      -12.05776206


--------------------------------------------------------------------------------------------------------




----------------------------------------- Iteration    1(   6)  ---------------------------------------


    POTLOK:  cpu time    1.0970: real time    1.1001
    SETDIJ:  cpu time    0.0040: real time    0.0040
    EDDIAG:  cpu time    0.0166: real time    0.0167
  RMM-DIIS:  cpu time    0.0604: real time    0.0607
    ORTHCH:  cpu time    0.0028: real time    0.0028
       DOS:  cpu time    0.0004: real time    0.0004
    CHARGE:  cpu time    0.0205: real time    0.0206
    MIXING:  cpu time    0.0021: real time    0.0021
    --------------------------------------------
      LOOP:  cpu time    1.2046: real time    1.2101

 eigenvalue-minimisations  :   134
 total energy-change (2. order) :-0.6357884E-03  (-0.4344118E-04)
 number of electron      10.0000000 magnetization      -0.0409850
 augmentation part        0.6666819 magnetization      -0.0049515

 Broyden mixing:
  rms(total) = 0.62219E-02    rms(broyden)= 0.62127E-02
  rms(prec ) = 0.91740E-02
  weight for this iteration     100.00

 eigenvalues of (default mixing * dielectric matrix)
  average eigenvalue GAMMA=   1.1913
  2.0042  2.0042  0.8312  0.8312  0.2857

 Free energy of the ion-electron system (eV)
  ---------------------------------------------------
  alpha Z        PSCENC =         0.43695755
  Ewald energy   TEWEN  =       101.99440654
  -Hartree energ DENC   =      -586.07477834
  -exchange      EXHF   =         0.00000000
  -V(xc)+E(xc)   XCENC  =        41.12676378
  PAW double counting   =       893.37921925     -896.17540112
  entropy T*S    EENTRO =         0.00517153
  eigenvalues    EBANDS =      -154.08451530
  atomic energy  EATOM  =       587.33585529
  Solvation  Ediel_sol  =         0.00000000
  ---------------------------------------------------
  free energy    TOTEN  =       -12.05632081 eV

  energy without entropy =      -12.06149234  energy(sigma->0) =      -12.05804466


--------------------------------------------------------------------------------------------------------




----------------------------------------- Iteration    1(   7)  ---------------------------------------


    POTLOK:  cpu time    1.0984: real time    1.1016
    SETDIJ:  cpu time    0.0040: real time    0.0040
    EDDIAG:  cpu time    0.0166: real time    0.0167
  RMM-DIIS:  cpu time    0.0666: real time    0.0669
    ORTHCH:  cpu time    0.0025: real time    0.0025
       DOS:  cpu time    0.0003: real time    0.0003
    CHARGE:  cpu time    0.0204: real time    0.0205
    MIXING:  cpu time    0.0020: real time    0.0020
    --------------------------------------------
      LOOP:  cpu time    1.2119: real time    1.2174

 eigenvalue-minimisations  :   134
 total energy-change (2. order) :-0.4072319E-03  (-0.2157871E-04)
 number of electron      10.0000000 magnetization      -0.0412036
 augmentation part        0.6660069 magnetization      -0.0005362

 Broyden mixing:
  rms(total) = 0.19368E-02    rms(broyden)= 0.19353E-02
  rms(prec ) = 0.46846E-02
  weight for this iteration     100.00

 eigenvalues of (default mixing * dielectric matrix)
  average eigenvalue GAMMA=   1.1755
  2.0500  2.0500  1.1250  0.8345  0.7083  0.2849

 Free energy of the ion-electron system (eV)
  ---------------------------------------------------
  alpha Z        PSCENC =         0.43695755
  Ewald energy   TEWEN  =       101.99440654
  -Hartree energ DENC   =      -586.14775255
  -exchange      EXHF   =         0.00000000
  -V(xc)+E(xc)   XCENC  =        41.13021430
  PAW double counting   =       893.33158840     -896.13019371
  entropy T*S    EENTRO =         0.00539176
  eigenvalues    EBANDS =      -154.01319562
  atomic energy  EATOM  =       587.33585529
  Solvation  Ediel_sol  =         0.00000000
  ---------------------------------------------------
  free energy    TOTEN  =       -12.05672805 eV

  energy without entropy =      -12.06211981  energy(sigma->0) =      -12.05852530


--------------------------------------------------------------------------------------------------------




----------------------------------------- Iteration    1(   8)  ---------------------------------------


    POTLOK:  cpu time    1.1038: real time    1.1070
    SETDIJ:  cpu time    0.0047: real time    0.0047
    EDDIAG:  cpu time    0.0174: real time    0.0175
  RMM-DIIS:  cpu time    0.0769: real time    0.0772
    ORTHCH:  cpu time    0.0024: real time    0.0025
       DOS:  cpu time    0.0004: real time    0.0004
    CHARGE:  cpu time    0.0208: real time    0.0209
    MIXING:  cpu time    0.0025: real time    0.0025
    --------------------------------------------
      LOOP:  cpu time    1.2298: real time    1.2354

 eigenvalue-minimisations  :   138
 total energy-change (2. order) :-0.2364060E-03  (-0.5500640E-05)
 number of electron      10.0000000 magnetization      -0.0411916
 augmentation part        0.6659210 magnetization      -0.0020381

 Broyden mixing:
  rms(total) = 0.16092E-02    rms(broyden)= 0.16089E-02
  rms(prec ) = 0.35896E-02
  weight for this iteration     100.00

 eigenvalues of (default mixing * dielectric matrix)
  average eigenvalue GAMMA=   1.2651
  2.3961  1.9881  1.7142  0.2850  0.8985  0.8985  0.6751

 Free energy of the ion-electron system (eV)
  ---------------------------------------------------
  alpha Z        PSCENC =         0.43695755
  Ewald energy   TEWEN  =       101.99440654
  -Hartree energ DENC   =      -586.20451297
  -exchange      EXHF   =         0.00000000
  -V(xc)+E(xc)   XCENC  =        41.13311903
  PAW double counting   =       893.06931767     -895.86896541
  entropy T*S    EENTRO =         0.00532069
  eigenvalues    EBANDS =      -153.95846286
  atomic energy  EATOM  =       587.33585529
  Solvation  Ediel_sol  =         0.00000000
  ---------------------------------------------------
  free energy    TOTEN  =       -12.05696445 eV

  energy without entropy =      -12.06228515  energy(sigma->0) =      -12.05873802


--------------------------------------------------------------------------------------------------------




----------------------------------------- Iteration    1(   9)  ---------------------------------------


    POTLOK:  cpu time    1.1185: real time    1.1217
    SETDIJ:  cpu time    0.0039: real time    0.0040
    EDDIAG:  cpu time    0.0185: real time    0.0186
  RMM-DIIS:  cpu time    0.0772: real time    0.0775
    ORTHCH:  cpu time    0.0029: real time    0.0029
       DOS:  cpu time    0.0006: real time    0.0006
    CHARGE:  cpu time    0.0215: real time    0.0216
    MIXING:  cpu time    0.0023: real time    0.0023
    --------------------------------------------
      LOOP:  cpu time    1.2463: real time    1.2520

 eigenvalue-minimisations  :   133
 total energy-change (2. order) :-0.1057445E-03  (-0.7089964E-05)
 number of electron      10.0000000 magnetization      -0.0410958
 augmentation part        0.6662106 magnetization      -0.0019511

 Broyden mixing:
  rms(total) = 0.12086E-02    rms(broyden)= 0.12077E-02
  rms(prec ) = 0.21652E-02
  weight for this iteration     100.00

 eigenvalues of (default mixing * dielectric matrix)
  average eigenvalue GAMMA=   1.3317
  3.1495  2.0707  1.5991  1.2942  0.2850  0.8048  0.8048  0.6453

 Free energy of the ion-electron system (eV)
  ---------------------------------------------------
  alpha Z        PSCENC =         0.43695755
  Ewald energy   TEWEN  =       101.99440654
  -Hartree energ DENC   =      -586.22903862
  -exchange      EXHF   =         0.00000000
  -V(xc)+E(xc)   XCENC  =        41.13418056
  PAW double counting   =       892.65045693     -895.45058005
  entropy T*S    EENTRO =         0.00531964
  eigenvalues    EBANDS =      -153.93462803
  atomic energy  EATOM  =       587.33585529
  Solvation  Ediel_sol  =         0.00000000
  ---------------------------------------------------
  free energy    TOTEN  =       -12.05707020 eV

  energy without entropy =      -12.06238984  energy(sigma->0) =      -12.05884341


--------------------------------------------------------------------------------------------------------




----------------------------------------- Iteration    1(  10)  ---------------------------------------


    POTLOK:  cpu time    1.1068: real time    1.1102
    SETDIJ:  cpu time    0.0041: real time    0.0041
    EDDIAG:  cpu time    0.0165: real time    0.0166
  RMM-DIIS:  cpu time    0.0633: real time    0.0636
    ORTHCH:  cpu time    0.0024: real time    0.0024
       DOS:  cpu time    0.0004: real time    0.0004
    CHARGE:  cpu time    0.0204: real time    0.0205
    MIXING:  cpu time    0.0026: real time    0.0026
    --------------------------------------------
      LOOP:  cpu time    1.2175: real time    1.2233

 eigenvalue-minimisations  :   132
 total energy-change (2. order) : 0.4761647E-04  (-0.2279696E-05)
 number of electron      10.0000000 magnetization      -0.0411309
 augmentation part        0.6661436 magnetization      -0.0013296

 Broyden mixing:
  rms(total) = 0.67908E-03    rms(broyden)= 0.67895E-03
  rms(prec ) = 0.13098E-02
  weight for this iteration     100.00

 eigenvalues of (default mixing * dielectric matrix)
  average eigenvalue GAMMA=   1.4515
  3.6258  2.3859  1.8176  1.8176  0.8860  0.8860  0.2850  0.7313  0.6288

 Free energy of the ion-electron system (eV)
  ---------------------------------------------------
  alpha Z        PSCENC =         0.43695755
  Ewald energy   TEWEN  =       101.99440654
  -Hartree energ DENC   =      -586.23231077
  -exchange      EXHF   =         0.00000000
  -V(xc)+E(xc)   XCENC  =        41.13419719
  PAW double counting   =       892.60375010     -895.40388795
  entropy T*S    EENTRO =         0.00535088
  eigenvalues    EBANDS =      -153.93134142
  atomic energy  EATOM  =       587.33585529
  Solvation  Ediel_sol  =         0.00000000
  ---------------------------------------------------
  free energy    TOTEN  =       -12.05702258 eV

  energy without entropy =      -12.06237346  energy(sigma->0) =      -12.05880621


--------------------------------------------------------------------------------------------------------




----------------------------------------- Iteration    1(  11)  ---------------------------------------


    POTLOK:  cpu time    1.0965: real time    1.0999
    SETDIJ:  cpu time    0.0041: real time    0.0041
    EDDIAG:  cpu time    0.0166: real time    0.0167
  RMM-DIIS:  cpu time    0.0635: real time    0.0638
    ORTHCH:  cpu time    0.0027: real time    0.0027
       DOS:  cpu time    0.0003: real time    0.0003
    CHARGE:  cpu time    0.0204: real time    0.0205
    MIXING:  cpu time    0.0031: real time    0.0031
    --------------------------------------------
      LOOP:  cpu time    1.2082: real time    1.2140

 eigenvalue-minimisations  :   131
 total energy-change (2. order) :-0.1757860E-04  (-0.1652951E-05)
 number of electron      10.0000000 magnetization      -0.0411521
 augmentation part        0.6660526 magnetization      -0.0015284

 Broyden mixing:
  rms(total) = 0.42199E-03    rms(broyden)= 0.42170E-03
  rms(prec ) = 0.78355E-03
  weight for this iteration     100.00

 eigenvalues of (default mixing * dielectric matrix)
  average eigenvalue GAMMA=   1.5802
  5.0281  2.6727  1.8811  1.8034  0.2850  1.0722  0.8621  0.8621  0.7122  0.6232

 Free energy of the ion-electron system (eV)
  ---------------------------------------------------
  alpha Z        PSCENC =         0.43695755
  Ewald energy   TEWEN  =       101.99440654
  -Hartree energ DENC   =      -586.24341371
  -exchange      EXHF   =         0.00000000
  -V(xc)+E(xc)   XCENC  =        41.13456260
  PAW double counting   =       892.65179323     -895.45176264
  entropy T*S    EENTRO =         0.00534245
  eigenvalues    EBANDS =      -153.92078147
  atomic energy  EATOM  =       587.33585529
  Solvation  Ediel_sol  =         0.00000000
  ---------------------------------------------------
  free energy    TOTEN  =       -12.05704016 eV

  energy without entropy =      -12.06238261  energy(sigma->0) =      -12.05882098


--------------------------------------------------------------------------------------------------------




----------------------------------------- Iteration    1(  12)  ---------------------------------------


    POTLOK:  cpu time    1.1170: real time    1.1205
    SETDIJ:  cpu time    0.0043: real time    0.0043
    EDDIAG:  cpu time    0.0203: real time    0.0204
  RMM-DIIS:  cpu time    0.0574: real time    0.0577
    ORTHCH:  cpu time    0.0035: real time    0.0035
       DOS:  cpu time    0.0007: real time    0.0007
    CHARGE:  cpu time    0.0226: real time    0.0227
    MIXING:  cpu time    0.0034: real time    0.0034
    --------------------------------------------
      LOOP:  cpu time    1.2302: real time    1.2361

 eigenvalue-minimisations  :   129
 total energy-change (2. order) :-0.1008939E-04  (-0.3920076E-06)
 number of electron      10.0000000 magnetization      -0.0411325
 augmentation part        0.6660817 magnetization      -0.0016423

 Broyden mixing:
  rms(total) = 0.25900E-03    rms(broyden)= 0.25899E-03
  rms(prec ) = 0.47271E-03
  weight for this iteration     100.00

 eigenvalues of (default mixing * dielectric matrix)
  average eigenvalue GAMMA=   1.6520
  6.1250  2.7326  2.1050  1.5722  1.5722  0.2850  0.8804  0.8804  0.7248  0.6678
  0.6266

 Free energy of the ion-electron system (eV)
  ---------------------------------------------------
  alpha Z        PSCENC =         0.43695755
  Ewald energy   TEWEN  =       101.99440654
  -Hartree energ DENC   =      -586.24577796
  -exchange      EXHF   =         0.00000000
  -V(xc)+E(xc)   XCENC  =        41.13464370
  PAW double counting   =       892.68730488     -895.48716711
  entropy T*S    EENTRO =         0.00533627
  eigenvalues    EBANDS =      -153.91860942
  atomic energy  EATOM  =       587.33585529
  Solvation  Ediel_sol  =         0.00000000
  ---------------------------------------------------
  free energy    TOTEN  =       -12.05705025 eV

  energy without entropy =      -12.06238652  energy(sigma->0) =      -12.05882901


--------------------------------------------------------------------------------------------------------




----------------------------------------- Iteration    1(  13)  ---------------------------------------


    POTLOK:  cpu time    1.1078: real time    1.1112
    SETDIJ:  cpu time    0.0040: real time    0.0040
    EDDIAG:  cpu time    0.0166: real time    0.0167
  RMM-DIIS:  cpu time    0.0622: real time    0.0626
    ORTHCH:  cpu time    0.0023: real time    0.0023
       DOS:  cpu time    0.0003: real time    0.0003
    CHARGE:  cpu time    0.0205: real time    0.0205
    MIXING:  cpu time    0.0032: real time    0.0032
    --------------------------------------------
      LOOP:  cpu time    1.2180: real time    1.2237

 eigenvalue-minimisations  :   137
 total energy-change (2. order) :-0.1717380E-04  (-0.2011724E-06)
 number of electron      10.0000000 magnetization      -0.0411233
 augmentation part        0.6660987 magnetization      -0.0015420

 Broyden mixing:
  rms(total) = 0.13863E-03    rms(broyden)= 0.13859E-03
  rms(prec ) = 0.25222E-03
  weight for this iteration     100.00

 eigenvalues of (default mixing * dielectric matrix)
  average eigenvalue GAMMA=   1.8027
  7.0887  3.2685  2.5224  1.9285  1.7349  0.2850  1.0450  0.8933  0.8933  0.7199
  0.6263  0.6263

 Free energy of the ion-electron system (eV)
  ---------------------------------------------------
  alpha Z        PSCENC =         0.43695755
  Ewald energy   TEWEN  =       101.99440654
  -Hartree energ DENC   =      -586.23937826
  -exchange      EXHF   =         0.00000000
  -V(xc)+E(xc)   XCENC  =        41.13439044
  PAW double counting   =       892.72020773     -895.52008315
  entropy T*S    EENTRO =         0.00534039
  eigenvalues    EBANDS =      -153.92476396
  atomic energy  EATOM  =       587.33585529
  Solvation  Ediel_sol  =         0.00000000
  ---------------------------------------------------
  free energy    TOTEN  =       -12.05706742 eV

  energy without entropy =      -12.06240782  energy(sigma->0) =      -12.05884755


--------------------------------------------------------------------------------------------------------




----------------------------------------- Iteration    1(  14)  ---------------------------------------


    POTLOK:  cpu time    1.0975: real time    1.1008
    SETDIJ:  cpu time    0.0040: real time    0.0040
    EDDIAG:  cpu time    0.0165: real time    0.0166
  RMM-DIIS:  cpu time    0.0557: real time    0.0560
    ORTHCH:  cpu time    0.0024: real time    0.0024
       DOS:  cpu time    0.0004: real time    0.0004
    CHARGE:  cpu time    0.0205: real time    0.0206
    MIXING:  cpu time    0.0034: real time    0.0034
    --------------------------------------------
      LOOP:  cpu time    1.2013: real time    1.2070

 eigenvalue-minimisations  :   128
 total energy-change (2. order) :-0.1597907E-04  (-0.1564140E-06)
 number of electron      10.0000000 magnetization      -0.0411362
 augmentation part        0.6661007 magnetization      -0.0015070

 Broyden mixing:
  rms(total) = 0.10827E-03    rms(broyden)= 0.10825E-03
  rms(prec ) = 0.14253E-03
  weight for this iteration     100.00

 eigenvalues of (default mixing * dielectric matrix)
  average eigenvalue GAMMA=   1.8314
  7.5874  3.8611  2.5742  1.9959  1.4849  1.4849  0.2850  0.8876  0.8876  0.8181
  0.7127  0.6051  0.6241

 Free energy of the ion-electron system (eV)
  ---------------------------------------------------
  alpha Z        PSCENC =         0.43695755
  Ewald energy   TEWEN  =       101.99440654
  -Hartree energ DENC   =      -586.23239871
  -exchange      EXHF   =         0.00000000
  -V(xc)+E(xc)   XCENC  =        41.13408305
  PAW double counting   =       892.74015500     -895.54005305
  entropy T*S    EENTRO =         0.00534276
  eigenvalues    EBANDS =      -153.93143185
  atomic energy  EATOM  =       587.33585529
  Solvation  Ediel_sol  =         0.00000000
  ---------------------------------------------------
  free energy    TOTEN  =       -12.05708340 eV

  energy without entropy =      -12.06242617  energy(sigma->0) =      -12.05886432


--------------------------------------------------------------------------------------------------------




----------------------------------------- Iteration    1(  15)  ---------------------------------------


    POTLOK:  cpu time    1.0992: real time    1.1025
    SETDIJ:  cpu time    0.0040: real time    0.0040
    EDDIAG:  cpu time    0.0165: real time    0.0166
  RMM-DIIS:  cpu time    0.0833: real time    0.0837
    ORTHCH:  cpu time    0.0023: real time    0.0023
       DOS:  cpu time    0.0003: real time    0.0003
    --------------------------------------------
      LOOP:  cpu time    1.2065: real time    1.2121

 eigenvalue-minimisations  :   149
 total energy-change (2. order) : 0.2202853E-07  (-0.2355619E-07)
 number of electron      10.0000000 magnetization      -0.0411362
 augmentation part        0.6661007 magnetization      -0.0015070

 Free energy of the ion-electron system (eV)
  ---------------------------------------------------
  alpha Z        PSCENC =         0.43695755
  Ewald energy   TEWEN  =       101.99440654
  -Hartree energ DENC   =      -586.23272842
  -exchange      EXHF   =         0.00000000
  -V(xc)+E(xc)   XCENC  =        41.13407531
  PAW double counting   =       892.72122163     -895.52111163
  entropy T*S    EENTRO =         0.00533917
  eigenvalues    EBANDS =      -153.93109882
  atomic energy  EATOM  =       587.33585529
  Solvation  Ediel_sol  =         0.00000000
  ---------------------------------------------------
  free energy    TOTEN  =       -12.05708338 eV

  energy without entropy =      -12.06242255  energy(sigma->0) =      -12.05886310


--------------------------------------------------------------------------------------------------------




 average (electrostatic) potential at core
  the test charge radii are     0.6991  0.7215
  (the norm of the test charge is              1.0000)
       1 -61.9473       2 -83.9505
 
 
 
 E-fermi :  -9.1221     XC(G=0):  -0.6903     alpha+bet : -0.1751


 spin component 1

 k-point     1 :       0.0000    0.0000    0.0000
  band No.  band energies     occupation 
      1     -29.6586      1.00000
      2     -14.2126      1.00000
      3     -11.9135      1.00000
      4     -11.9135      1.00000
      5      -9.1982      0.97944
      6      -2.1358      0.00000
      7      -2.1358      0.00000
      8      -0.3587      0.00000
      9       0.8471      0.00000
     10       1.0169      0.00000
     11       1.0170      0.00000
     12       1.1774      0.00000
     13       1.3155      0.00000
     14       1.3434      0.00000
     15       2.3895      0.00000
     16       2.4223      0.00000
     17       2.4562      0.00000
     18       2.4563      0.00000
     19       2.6744      0.00000
     20       2.6745      0.00000
     21       2.7502      0.00000
     22       2.8167      0.00000
     23       2.9280      0.00000
     24       2.9535      0.00000
     25       2.9535      0.00000
     26       3.0471      0.00000
     27       4.0889      0.00000
     28       4.1836      0.00000
     29       4.1837      0.00000
     30       4.1871      0.00000
     31       4.2449      0.00000
     32       4.3261      0.00000

 spin component 2

 k-point     1 :       0.0000    0.0000    0.0000
  band No.  band energies     occupation 
      1     -29.6705      1.00000
      2     -14.2340      1.00000
      3     -11.9204      1.00000
      4     -11.9204      1.00000
      5      -9.2875      1.02056
      6      -2.1709      0.00000
      7      -2.1709      0.00000
      8      -0.3632      0.00000
      9       0.8450      0.00000
     10       1.0138      0.00000
     11       1.0139      0.00000
     12       1.1720      0.00000
     13       1.3130      0.00000
     14       1.3415      0.00000
     15       2.3883      0.00000
     16       2.4193      0.00000
     17       2.4557      0.00000
     18       2.4558      0.00000
     19       2.6704      0.00000
     20       2.6704      0.00000
     21       2.7483      0.00000
     22       2.8148      0.00000
     23       2.9250      0.00000
     24       2.9525      0.00000
     25       2.9524      0.00000
     26       3.0419      0.00000
     27       4.0880      0.00000
     28       4.1822      0.00000
     29       4.1822      0.00000
     30       4.1866      0.00000
     31       4.2415      0.00000
     32       4.3240      0.00000


--------------------------------------------------------------------------------------------------------


 soft charge-density along one line, spin component           1
         0         1         2         3         4         5         6         7         8         9
 total charge-density along one line
 
 soft charge-density along one line, spin component           2
         0         1         2         3         4         5         6         7         8         9
 total charge-density along one line
 
 pseudopotential strength for first ion, spin component:           1
 10.449  13.902   0.000  -0.025  -0.000  -0.000   0.082   0.000
 13.902  18.494   0.000  -0.033  -0.000  -0.000   0.108   0.000
  0.000   0.000  -4.420   0.000  -0.000   8.647  -0.000   0.000
 -0.025  -0.033   0.000  -4.440  -0.000  -0.000   8.670   0.000
 -0.000  -0.000  -0.000  -0.000  -4.420   0.000   0.000   8.647
 -0.000  -0.000   8.647  -0.000   0.000 -19.064   0.000  -0.000
  0.082   0.108  -0.000   8.670   0.000   0.000 -19.080  -0.000
  0.000   0.000   0.000   0.000   8.647  -0.000  -0.000 -19.065
 pseudopotential strength for first ion, spin component:           2
 10.452  13.905  -0.000  -0.024  -0.000   0.000   0.078   0.000
 13.905  18.499  -0.000  -0.031  -0.000   0.000   0.102   0.000
 -0.000  -0.000  -4.424  -0.000   0.000   8.653   0.000  -0.000
 -0.024  -0.031  -0.000  -4.445  -0.000   0.000   8.680   0.000
 -0.000  -0.000   0.000  -0.000  -4.424  -0.000   0.000   8.653
  0.000   0.000   8.653   0.000  -0.000 -19.072  -0.000   0.000
  0.078   0.102   0.000   8.680   0.000  -0.000 -19.094  -0.000
  0.000   0.000  -0.000   0.000   8.653   0.000  -0.000 -19.072
 total augmentation occupancy for first ion, spin component:           1
  8.429  -3.916   0.000  -2.198  -0.000   0.000  -0.411  -0.000
 -3.916   2.188  -0.000   1.673   0.000  -0.000   0.251   0.000
  0.000  -0.000   0.835   0.000  -0.000   0.064  -0.000   0.000
 -2.198   1.673   0.000   2.279   0.000   0.000   0.217   0.000
 -0.000   0.000  -0.000   0.000   0.835   0.000   0.000   0.064
  0.000  -0.000   0.064   0.000   0.000   0.005  -0.000   0.000
 -0.411   0.251  -0.000   0.217   0.000  -0.000   0.030   0.000
 -0.000   0.000   0.000   0.000   0.064   0.000   0.000   0.005
 total augmentation occupancy for first ion, spin component:           2
 -0.005  -0.003   0.000  -0.012  -0.000   0.000  -0.001  -0.000
 -0.003  -0.002  -0.000  -0.007  -0.000  -0.000  -0.000   0.000
  0.000  -0.000  -0.002   0.000   0.000  -0.000   0.000  -0.000
 -0.012  -0.007   0.000  -0.029  -0.000  -0.000  -0.001  -0.000
 -0.000  -0.000   0.000  -0.000  -0.002  -0.000  -0.000  -0.000
  0.000  -0.000  -0.000  -0.000  -0.000   0.000  -0.000  -0.000
 -0.001  -0.000   0.000  -0.001  -0.000  -0.000  -0.000  -0.000
 -0.000   0.000  -0.000  -0.000  -0.000  -0.000  -0.000   0.000


------------------------ aborting loop because EDIFF is reached ----------------------------------------


 


 total charge     
 
# of ion     s       p       d       tot
----------------------------------------
  1        1.064   1.456   0.000   2.520
  2        1.637   3.575   0.000   5.212
------------------------------------------------
tot        2.701   5.031   0.000   7.732
 


 magnetization (x)
 
# of ion     s       p       d       tot
----------------------------------------
  1       -0.008  -0.014   0.000  -0.022
  2        0.000  -0.003   0.000  -0.003
------------------------------------------------
tot       -0.008  -0.017   0.000  -0.025
 
    CHARGE:  cpu time    0.0206: real time    0.0207
    FORLOC:  cpu time    0.0014: real time    0.0014
    FORNL :  cpu time    0.0043: real time    0.0043
    STRESS:  cpu time    0.0385: real time    0.0387
    FORCOR:  cpu time    1.1104: real time    1.1138
    FORHAR:  cpu time    0.0056: real time    0.0056
    MIXING:  cpu time    0.0034: real time    0.0034
    OFIELD:  cpu time    0.0000: real time    0.0000

  FORCE on cell =-STRESS in cart. coord.  units (eV):
  Direction    XX          YY          ZZ          XY          YZ          ZX
  --------------------------------------------------------------------------------------
  Alpha Z     0.43696     0.43696     0.43696
  Ewald     -68.55120   -68.55120   239.09676    -0.00000     0.00000     0.03292
  Hartree   158.89642   158.89618   268.44231     0.00000     0.00000     0.01132
  E(xc)     -46.59082   -46.59085   -44.65689    -0.00000     0.00000     0.00021
  Local    -224.93769  -224.93741  -615.09496    -0.00000    -0.00000    -0.04129
  n-local   -17.89165   -17.89162   -29.13489     0.00000    -0.00000    -0.00120
  augment     6.27647     6.27523     5.66776     0.00000    -0.00000    -0.00032
  Kinetic   192.32629   192.32671   176.53965    -0.00000    -0.00000    -0.00172
  Fock        0.00000     0.00000     0.00000     0.00000     0.00000     0.00000
  -------------------------------------------------------------------------------------
  Total      -0.03522    -0.03600     1.29670    -0.00000    -0.00000    -0.00009
  in kB      -0.05642    -0.05768     2.07755    -0.00000    -0.00000    -0.00015
  external pressure =        0.65 kB  Pullay stress =        0.00 kB


 VOLUME and BASIS-vectors are now :
 -----------------------------------------------------------------------------
  energy-cutoff  :      500.00
  volume of cell :     1000.00
      direct lattice vectors                 reciprocal lattice vectors
    10.000000000  0.000000000  0.000000000     0.100000000  0.000000000  0.000000000
     0.000000000 10.000000000  0.000000000     0.000000000  0.100000000  0.000000000
     0.000000000  0.000000000 10.000000000     0.000000000  0.000000000  0.100000000

  length of vectors
    10.000000000 10.000000000 10.000000000     0.100000000  0.100000000  0.100000000


 FORCES acting on ions
    electron-ion (+dipol)            ewald-force                    non-local-force                 convergence-correction
 -----------------------------------------------------------------------------------------------
   -.260E-01 0.810E-06 -.239E+03   0.292E-01 0.212E-16 0.268E+03   -.334E-02 -.191E-06 -.281E+02   0.253E-06 -.600E-06 0.392E-03
   0.227E-01 0.301E-06 0.207E+03   -.292E-01 0.390E-20 -.268E+03   0.560E-02 0.347E-06 0.604E+02   0.103E-05 -.722E-06 -.808E-03
 -----------------------------------------------------------------------------------------------
   -.329E-02 0.111E-05 -.323E+02   0.451E-16 0.212E-16 0.000E+00   0.226E-02 0.155E-06 0.323E+02   0.128E-05 -.132E-05 -.416E-03
 
 
 POSITION                                       TOTAL-FORCE (eV/Angst)
 -----------------------------------------------------------------------------------
      5.20006      5.00000      4.99660         0.000346      0.000000      1.190961
      5.19994      5.00000      3.86474        -0.000346     -0.000000     -1.190961
 -----------------------------------------------------------------------------------
    total drift:                               -0.001035     -0.000000     -0.007258


--------------------------------------------------------------------------------------------------------



  FREE ENERGIE OF THE ION-ELECTRON SYSTEM (eV)
  ---------------------------------------------------
  free  energy   TOTEN  =       -12.05708338 eV

  energy  without entropy=      -12.06242255  energy(sigma->0) =      -12.05886310
 


--------------------------------------------------------------------------------------------------------


    POTLOK:  cpu time    1.1084: real time    1.1119


--------------------------------------------------------------------------------------------------------


 writing wavefunctions
     LOOP+:  cpu time   22.6751: real time   22.7868
    4ORBIT:  cpu time    0.0000: real time    0.0000
 


 total charge     
 
# of ion     s       p       d       tot
----------------------------------------
  1        1.064   1.456   0.000   2.520
  2        1.637   3.575   0.000   5.212
------------------------------------------------
tot        2.701   5.031   0.000   7.732
 


 magnetization (x)
 
# of ion     s       p       d       tot
----------------------------------------
  1       -0.008  -0.014   0.000  -0.022
  2        0.000  -0.003   0.000  -0.003
------------------------------------------------
tot       -0.008  -0.017   0.000  -0.025
 

 total amount of memory used by VASP on root node    53060. kBytes
========================================================================

   base      :      30000. kBytes
   nonl-proj :       2037. kBytes
   fftplans  :       2388. kBytes
   grid      :      18221. kBytes
   one-center:          6. kBytes
   wavefun   :        408. kBytes
 
  
  
 General timing and accounting informations for this job:
 ========================================================
  
                  Total CPU time used (sec):       25.396
                            User time (sec):       24.034
                          System time (sec):        1.362
                         Elapsed time (sec):       26.004
  
                   Maximum memory used (kb):      324976.
                   Average memory used (kb):           0.
  
                          Minor page faults:       118143
                          Major page faults:            0
                 Voluntary context switches:         1637
