    #         X           Y           Z       CHARGE      MIN DIST   ATOMIC VOL
 --------------------------------------------------------------------------------
    1    5.200010    5.000000    4.788490    1.009327     0.324912   506.099957
    2    5.199990    5.000000    4.062850    0.990672     0.312884   493.900043
 --------------------------------------------------------------------------------
    VACUUM CHARGE:               0.0000
    VACUUM VOLUME:               0.0000
    NUMBER OF ELECTRONS:         2.0000
