       N       E                     dE             d eps       ncg     rms          rms(c)
DAV:   1    -0.716420685106E+01   -0.71642E+01   -0.22119E-01    64   0.517E-01    0.401E-01
RMM:   2    -0.716088665796E+01    0.33202E-02   -0.20561E-03    64   0.483E-02    0.209E-01
RMM:   3    -0.715945062591E+01    0.14360E-02   -0.21475E-03    64   0.425E-02    0.332E-02
RMM:   4    -0.715959925824E+01   -0.14863E-03   -0.31086E-05    66   0.812E-03    0.731E-03
RMM:   5    -0.715968442463E+01   -0.85166E-04   -0.66235E-06    64   0.280E-03    0.334E-03
RMM:   6    -0.716002395980E+01   -0.33954E-03   -0.32572E-05    64   0.437E-03    0.439E-03
RMM:   7    -0.716002646972E+01   -0.25099E-05   -0.59430E-07    65   0.860E-04    0.124E-03
RMM:   8    -0.716005218831E+01   -0.25719E-04   -0.31828E-06    64   0.181E-03    0.804E-04
RMM:   9    -0.716005951590E+01   -0.73276E-05   -0.26200E-07    64   0.489E-04    0.118E-03
RMM:  10    -0.716006772465E+01   -0.82087E-05   -0.25149E-07    64   0.487E-04    0.627E-04
RMM:  11    -0.716006896989E+01   -0.12452E-05   -0.13047E-08    68   0.119E-04    0.166E-04
RMM:  12    -0.716006943886E+01   -0.46896E-06   -0.72086E-09    63   0.864E-05    0.189E-04
RMM:  13    -0.716006955999E+01   -0.12113E-06   -0.52071E-09    64   0.570E-05    0.743E-05
RMM:  14    -0.716006956812E+01   -0.81354E-08   -0.20247E-10    68   0.187E-05
   1 F= -.71600696E+01 E0= -.71620022E+01  d E =0.579791E-02
